LAMMPS (2 Apr 2025)
KOKKOS mode with Kokkos version 4.6.0 is enabled (src/KOKKOS/kokkos.cpp:72)
  will use up to 1 GPU(s) per node
  using 1 OpenMP thread(s) per MPI task
Lattice spacing in x,y,z = 4.08 4.08 4.08
Created orthogonal box = (0 0 0) to (40.8 40.8 40.8)
  2 by 2 by 2 MPI processor grid
Created 4000 atoms
  using lattice units in orthogonal box = (0 0 0) to (40.8 40.8 40.8)
  create_atoms CPU = 0.007 seconds
Reading eam potential file Au_u3.eam with DATE: 2007-06-11
Neighbor list info ...
  update: every = 1 steps, delay = 0 steps, check = yes
  max neighbors/atom: 2000, page size: 100000
  master list distance cutoff = 7.55
  ghost atom cutoff = 7.55
  binsize = 7.55, bins = 6 6 6
  1 neighbor lists, perpetual/occasional/extra = 1 0 0
  (1) pair eam/kk, perpetual
      attributes: half, newton on, kokkos_device
      pair build: half/bin/newton/kk/device
      stencil: half/bin/3d
      bin: kk/device
Setting up Verlet run ...
  Unit style    : metal
  Current step  : 0
  Time step     : 0.0005
WARNING: Fix STORE/ATOM not compatible with sending data in Kokkos communication (src/KOKKOS/comm_kokkos.cpp:766)
WARNING: Fix with atom-based arrays not compatible with sending data in Kokkos communication, switching to classic exchange/border communication (src/KOKKOS/comm_kokkos.cpp:779)
WARNING: Fix STORE/ATOM not compatible with Kokkos sorting on device (src/KOKKOS/atom_kokkos.cpp:212)
WARNING: Fix with atom-based arrays not compatible with Kokkos sorting on device, switching to classic host sorting (src/KOKKOS/atom_kokkos.cpp:218)
Per MPI rank memory allocation (min/avg/max) = 4.315 | 4.315 | 4.315 Mbytes
   Step          Time           Temp          PotEng         KinEng         Press          Volume        Density        c_Msd[4]   
         0   0              12000         -15720          6202.9358      97551.96       67917.312      19.263209      0            
      1000   0.5            12005.692     -8870.7426      6205.8781      1000404        57703.69       22.67282       4.6342262    
      2000   1              11947.08      -8887.4053      6175.5808      993882.56      57804.663      22.633216      9.3470082    
      3000   1.5            12129.226     -8825.3636      6269.7341      1004575.4      57754.421      22.652905      14.192012    
      4000   2              12054.418     -8783.2044      6231.0652      1003852.2      57827.739      22.624184      18.752604    
      5000   2.5            12108.304     -8701.6233      6258.9194      1022067.1      57556.896      22.730646      23.564472    
      6000   3              12033.076     -8925.4262      6220.033       978626.35      58159.099      22.495283      28.141842    
      7000   3.5            11986.811     -8850.0924      6196.1182      1006120        57595.683      22.715338      32.811924    
      8000   4              11964.239     -8916.7228      6184.4506      988273.88      57900.975      22.595568      37.656816    
      9000   4.5            12129.273     -8811.7208      6269.7584      1001456.4      57829.642      22.623439      42.384916    
     10000   5              12279.281     -8771.2007      6347.2994      1016871.5      57587.787      22.718453      47.398198    
Loop time of 18.0843 on 8 procs for 10000 steps with 4000 atoms

Performance: 23.888 ns/day, 1.005 hours/ns, 552.967 timesteps/s, 2.212 Matom-step/s
177.4% CPU use with 8 MPI tasks x 1 OpenMP threads

MPI task timing breakdown:
Section |  min time  |  avg time  |  max time  |%varavg| %total
---------------------------------------------------------------
Pair    | 10.289     | 10.472     | 10.662     |   3.4 | 57.91
Neigh   | 0.064333   | 0.065408   | 0.066528   |   0.3 |  0.36
Comm    | 3.6607     | 3.8624     | 4.0593     |   6.1 | 21.36
Output  | 0.00093609 | 0.0010289  | 0.0010838  |   0.2 |  0.01
Modify  | 3.0706     | 3.0856     | 3.1042     |   0.6 | 17.06
Other   |            | 0.5976     |            |       |  3.30

Nlocal:            500 ave         508 max         492 min
Histogram: 2 0 0 1 1 0 1 1 1 1
Nghost:         2334.5 ave        2349 max        2309 min
Histogram: 1 0 0 0 1 1 1 2 0 2
Neighs:          31135 ave       33980 max       27770 min
Histogram: 1 0 0 1 1 1 2 1 0 1

Total # of neighbors = 249080
Ave neighs/atom = 62.27
Neighbor list builds = 154
Dangerous builds = 0
Setting up Verlet run ...
  Unit style    : metal
  Current step  : 10000
  Time step     : 0.0005
WARNING: Fix STORE/ATOM not compatible with Kokkos sorting on device (src/KOKKOS/atom_kokkos.cpp:212)
WARNING: Fix with atom-based arrays not compatible with Kokkos sorting on device, switching to classic host sorting (src/KOKKOS/atom_kokkos.cpp:218)
Per MPI rank memory allocation (min/avg/max) = 5.509 | 5.509 | 5.509 Mbytes
   Step          Time           Temp          PotEng         KinEng         Press          Volume        Density        c_Msd[4]   
     10000   5              12279.281     -8771.2007      6347.2994      1016871.5      57587.787      22.718453      47.398198    
     11000   5.5            10093.98      -9043.1354      5217.6923      1004117        56821.675      23.02476       51.170772    
     12000   6              9931.2019     -9134.6815      5133.5507      991054.71      56899.876      22.993115      54.533285    
     13000   6.5            9961.0246     -9034.8958      5148.9664      1001046        56876.537      23.00255       58.165857    
     14000   7              10180.202     -9024.3017      5262.2617      1014040.2      56627.191      23.103837      62.292094    
     15000   7.5            9993.4868     -9021.7482      5165.7464      1000366.9      56921.046      22.984564      66.176894    
     16000   8              10077.591     -9038.1934      5209.2211      992652.19      57096.258      22.914031      70.483201    
     17000   8.5            10101.601     -8950.7665      5221.6319      1020462        56598.348      23.115611      74.560425    
     18000   9              10161.735     -9084.594       5252.7161      997971.96      56879.608      23.001308      78.617893    
     19000   9.5            10295.631     -9082.4348      5321.9281      993515.38      57018.067      22.945453      82.424542    
     20000   10             10048.95      -9015.2253      5194.4158      1006189.9      56804.694      23.031642      86.232011    
     21000   10.5           10240.251     -8979.8489      5293.3016      1005118.1      56948.125      22.973634      90.405017    
     22000   11             10017.437     -9104.4687      5178.1267      1000954.8      56734.682      23.060064      94.185862    
     23000   11.5           10084.867     -9010.3772      5212.9818      1007720.2      56773.483      23.044304      97.760965    
     24000   12             9924.417      -8974.7027      5130.0435      1009834        56764.341      23.048015      101.64408    
     25000   12.5           9957.5934     -9054.7225      5147.1928      1005316.9      56723.764      23.064503      105.49103    
     26000   13             9994.9104     -9094.1348      5166.4823      990910.95      56982.784      22.959661      109.29577    
     27000   13.5           10091.884     -9096.6211      5216.6093      1000905        56777.134      23.042822      112.71387    
     28000   14             9979.4395     -9020.853       5158.4852      1002122.7      56860.855      23.008894      115.66876    
     29000   14.5           9915.9475     -9158.4169      5125.6655      980456.73      57125.186      22.902427      118.67314    
     30000   15             10078.387     -9024.4931      5209.6324      1003233.3      56865.263      23.007111      122.11635    
     31000   15.5           10054.284     -9014.2914      5197.1733      1003485.2      56849.12       23.013644      125.71217    
     32000   16             9812.2281     -9185.71        5072.0518      983562.75      56963.371      22.967486      129.09032    
     33000   16.5           9993.1375     -9093.728       5165.5659      1007302.7      56608.787      23.111349      132.23727    
     34000   17             9930.112      -9104.5193      5132.9873      990667.55      56942.554      22.975882      136.1965     
     35000   17.5           10263.813     -9159.5259      5305.4812      985201.36      57056.432      22.930025      139.74185    
     36000   18             10103.028     -9080.1479      5222.3697      1003636.6      56736.983      23.059129      142.88108    
     37000   18.5           9718.8217     -9122.5615      5023.769       996223.86      56731.724      23.061266      146.08549    
     38000   19             10010.857     -9131.1634      5174.7253      990380.34      56970.468      22.964624      150.25959    
     39000   19.5           10048.731     -9033.0445      5194.3029      1002435.9      56831.099      23.020942      153.56588    
     40000   20             9821.4591     -9072.3732      5076.8234      993617.16      56943.011      22.975698      157.22248    
     41000   20.5           10126.069     -8955.579       5234.2799      1018046.5      56669.319      23.086662      160.39618    
     42000   21             9974.4689     -9189.247       5155.9159      981162.49      57023.24       22.943372      163.85854    
     43000   21.5           10204.217     -9067.3702      5274.6754      996263.22      56966.188      22.96635       167.93843    
     44000   22             10143.615     -9035.9162      5243.3496      1001560.5      56883.299      22.999816      171.52307    
     45000   22.5           10119.154     -9076.9058      5230.7054      995215         56942.034      22.976092      175.55994    
     46000   23             10060.968     -9060.3798      5200.6284      999629.02      56886.48       22.99853       179.04178    
     47000   23.5           10406.114     -9014.7323      5379.0379      1012115.5      56728.915      23.062408      182.91385    
     48000   24             10150.7       -9106.0196      5247.0118      999836.25      56797.109      23.034718      187.23674    
     49000   24.5           9891.716      -9242.4206      5113.14        974624.22      57058.2        22.929314      191.84664    
     50000   25             10018.913     -9042.5873      5178.8894      1014675.5      56558.935      23.131719      193.70415    
     51000   25.5           10032.795     -8973.7607      5186.0651      1011212.5      56777.448      23.042695      198.60412    
     52000   26             10027.558     -9087.4735      5183.3581      1001364.2      56768.044      23.046512      202.32995    
     53000   26.5           10228.481     -9041.309       5287.2176      1007334.1      56758.197      23.05051       205.74929    
     54000   27             10056.413     -9207.0049      5198.2739      976827.09      57102.477      22.911535      210.3265     
     55000   27.5           10074.722     -9100.5861      5207.7376      996777.24      56868.197      23.005924      213.61858    
     56000   28             9961.2784     -9033.7796      5149.0975      1008446.8      56697.418      23.07522       217.21361    
     57000   28.5           9923.1837     -9066.3025      5129.406       999971.63      56820.126      23.025387      221.00212    
     58000   29             9821.99       -9022.7922      5077.0978      1003230.9      56792.269      23.036681      225.20016    
     59000   29.5           10001.949     -9076.4616      5170.1206      996336.98      56896.642      22.994422      228.90773    
     60000   30             10027.375     -9136.6071      5183.2639      991788.2       56897.67       22.994007      232.21325    
     61000   30.5           9961.4016     -9115.8351      5149.1612      990075.56      56960.676      22.968572      237.06982    
     62000   31             9821.7328     -9045.8127      5076.9648      1004580        56725.123      23.06395       240.19298    
     63000   31.5           9913.1535     -9078.2901      5124.2213      996011.19      56888.925      22.997541      244.69749    
     64000   32             9860.4119     -8857.0189      5096.9585      1030269.7      56524.842      23.145671      246.93806    
     65000   32.5           10164.849     -9130.1123      5254.3256      994915.02      56868.355      23.00586       251.86981    
     66000   33             9948.1359     -9001.3408      5142.3041      1012663.1      56664.27       23.088719      254.40077    
     67000   33.5           10100.628     -9191.9332      5221.1291      986301.07      56942.206      22.976022      258.60166    
     68000   34             10253.066     -9115.5555      5299.9257      993472.22      56952.051      22.972051      262.48928    
     69000   34.5           9957.4685     -9129.0083      5147.1282      995826.09      56799.878      23.033595      265.66474    
     70000   35             10004.341     -8931.4642      5171.3569      1018316.5      56656.715      23.091798      269.18096    
     71000   35.5           10079.652     -9007.1488      5210.2864      1006583.8      56833.213      23.020085      274.35777    
     72000   36             9945.2843     -8977.5894      5140.83        1009963.7      56756.655      23.051136      277.80958    
     73000   36.5           10065.961     -9072.5817      5203.209       1004457.1      56727.051      23.063166      281.77572    
     74000   37             9787.3368     -9151.1642      5059.1852      987952.48      56918.59       22.985555      286.38712    
     75000   37.5           9950.8517     -9157.592       5143.7079      984276.51      56989.67       22.956887      289.47985    
     76000   38             10228.496     -8996.3637      5287.2254      1019509.9      56583.576      23.121646      291.7137     
     77000   38.5           9855.4839     -9158.3094      5094.4112      986077.01      56940.758      22.976607      296.3725     
     78000   39             10030.633     -9058.9825      5184.9478      997307.04      56900.315      22.992938      299.36829    
     79000   39.5           10133.127     -9101.5272      5237.9283      995023.59      56935.642      22.978671      302.43141    
     80000   40             9938.2442     -8958.6799      5137.1909      1020239.7      56575.288      23.125033      305.27391    
     81000   40.5           9813.9863     -9007.3569      5072.9606      1009256.4      56715.072      23.068037      309.77494    
     82000   41             10075.318     -9094.3405      5208.0458      996097.81      56892.414      22.996131      312.92663    
     83000   41.5           10007.12      -9153.7247      5172.7934      991623.61      56861.159      23.008771      316.76992    
     84000   42             10104.288     -9078.5657      5223.0207      998259.81      56881.764      23.000437      319.19431    
     85000   42.5           10119.746     -9027.9569      5231.0113      1008542.3      56752.469      23.052837      322.86682    
     86000   43             10085.91      -9021.0599      5213.5211      1006124        56817.92       23.026281      327.86988    
     87000   43.5           10235.056     -9089.4406      5290.616       991390.4       57037.885      22.937481      332.20136    
     88000   44             9888.6813     -9013.4152      5111.5713      1011961.8      56649.064      23.094917      334.18359    
     89000   44.5           10275.378     -9185.8349      5311.4592      987971.46      56945.344      22.974756      339.85531    
     90000   45             10066.034     -9080.0016      5203.2472      993426         56982.21       22.959892      343.5965     
     91000   45.5           10064.298     -8963.827       5202.3496      1022373.8      56549.734      23.135483      345.746      
     92000   46             10028.557     -9057.9539      5183.8744      996072.79      56946.079      22.97446       350.43952    
     93000   46.5           9977.6506     -8971.9162      5157.5605      1017761.8      56615.422      23.10864       353.69794    
     94000   47             9971.6419     -9093.5215      5154.4546      994573.19      56905.573      22.990813      357.8225     
     95000   47.5           10255.435     -9056.5125      5301.1502      1005722.3      56783.163      23.040376      361.36657    
     96000   48             9717.4464     -9044.7692      5023.0581      997296.46      56895.91       22.994718      365.14952    
     97000   48.5           10330.174     -8959.0218      5339.7836      1017999.7      56720.81       23.065704      368.44561    
     98000   49             10247.728     -9158.072       5297.1664      987934.47      56979.934      22.960809      372.65697    
     99000   49.5           10053.174     -9007.4559      5196.5994      1006736.1      56799.75       23.033647      375.48203    
    100000   50             10043.102     -9111.3096      5191.3934      997932.9       56792.138      23.036735      379.54107    
    101000   50.5           9992.6793     -9110.8856      5165.329       997437.42      56809.495      23.029696      384.11996    
    102000   51             9974.1166     -9032.6148      5155.7338      1003239.9      56825.628      23.023158      387.92882    
    103000   51.5           9883.4989     -9078.3441      5108.8925      991947.09      56959.564      22.969021      391.45689    
    104000   52             9913.9653     -9081.6906      5124.6409      991660.2       56971.791      22.964091      394.19818    
    105000   52.5           10048.201     -8924.1659      5194.029       1022863        56602.476      23.113926      395.80768    
    106000   53             9957.6796     -9173.727       5147.2373      988223.64      56870.537      23.004977      399.82541    
    107000   53.5           9854.4501     -8970.8569      5093.8768      1016698.5      56611.197      23.110364      402.97242    
    108000   54             10024.217     -9213.1141      5181.631       972958.27      57203.25       22.871173      409.60663    
    109000   54.5           10154.072     -9060.4849      5248.7548      1004739.5      56786.351      23.039082      411.2838     
    110000   55             9878.1322     -8991.6433      5106.1184      1011831.7      56668.968      23.086805      413.82657    
Loop time of 181.169 on 8 procs for 100000 steps with 4000 atoms

Performance: 23.845 ns/day, 1.006 hours/ns, 551.971 timesteps/s, 2.208 Matom-step/s
176.9% CPU use with 8 MPI tasks x 1 OpenMP threads

MPI task timing breakdown:
Section |  min time  |  avg time  |  max time  |%varavg| %total
---------------------------------------------------------------
Pair    | 103.62     | 105.35     | 107.19     |  10.6 | 58.15
Neigh   | 0.56622    | 0.57383    | 0.58048    |   0.7 |  0.32
Comm    | 36.53      | 38.51      | 40.39      |  19.0 | 21.26
Output  | 0.01781    | 0.019577   | 0.021434   |   0.8 |  0.01
Modify  | 30.625     | 30.778     | 30.967     |   2.0 | 16.99
Other   |            | 5.936      |            |       |  3.28

Nlocal:            500 ave         512 max         492 min
Histogram: 1 1 2 0 1 1 1 0 0 1
Nghost:        2356.12 ave        2370 max        2345 min
Histogram: 1 2 1 0 0 1 1 0 1 1
Neighs:        31654.1 ave       34394 max       29275 min
Histogram: 1 1 2 0 0 1 1 0 1 1

Total # of neighbors = 253233
Ave neighs/atom = 63.30825
Neighbor list builds = 1386
Dangerous builds = 0
Total wall time: 0:03:20
