LAMMPS (2 Apr 2025)
KOKKOS mode with Kokkos version 4.6.0 is enabled (src/KOKKOS/kokkos.cpp:72)
  will use up to 1 GPU(s) per node
  using 1 OpenMP thread(s) per MPI task
Lattice spacing in x,y,z = 4.08 4.08 4.08
Created orthogonal box = (0 0 0) to (40.8 40.8 40.8)
  2 by 2 by 2 MPI processor grid
Created 4000 atoms
  using lattice units in orthogonal box = (0 0 0) to (40.8 40.8 40.8)
  create_atoms CPU = 0.007 seconds
Reading eam potential file Au_u3.eam with DATE: 2007-06-11
Neighbor list info ...
  update: every = 1 steps, delay = 0 steps, check = yes
  max neighbors/atom: 2000, page size: 100000
  master list distance cutoff = 7.55
  ghost atom cutoff = 7.55
  binsize = 7.55, bins = 6 6 6
  1 neighbor lists, perpetual/occasional/extra = 1 0 0
  (1) pair eam/kk, perpetual
      attributes: half, newton on, kokkos_device
      pair build: half/bin/newton/kk/device
      stencil: half/bin/3d
      bin: kk/device
Setting up Verlet run ...
  Unit style    : metal
  Current step  : 0
  Time step     : 0.0005
WARNING: Fix STORE/ATOM not compatible with sending data in Kokkos communication (src/KOKKOS/comm_kokkos.cpp:766)
WARNING: Fix with atom-based arrays not compatible with sending data in Kokkos communication, switching to classic exchange/border communication (src/KOKKOS/comm_kokkos.cpp:779)
WARNING: Fix STORE/ATOM not compatible with Kokkos sorting on device (src/KOKKOS/atom_kokkos.cpp:212)
WARNING: Fix with atom-based arrays not compatible with Kokkos sorting on device, switching to classic host sorting (src/KOKKOS/atom_kokkos.cpp:218)
Per MPI rank memory allocation (min/avg/max) = 4.315 | 4.315 | 4.315 Mbytes
   Step          Time           Temp          PotEng         KinEng         Press          Volume        Density        c_Msd[4]   
         0   0              12000         -15720          6202.9358      97551.96       67917.312      19.263209      0            
      1000   0.5            12005.692     -8870.7426      6205.8781      1000404        57703.69       22.67282       4.6342262    
      2000   1              11947.08      -8887.4053      6175.5808      993882.56      57804.663      22.633216      9.3470082    
      3000   1.5            12129.226     -8825.3636      6269.7341      1004575.4      57754.421      22.652905      14.192012    
      4000   2              12054.418     -8783.2044      6231.0652      1003852.2      57827.739      22.624184      18.752604    
      5000   2.5            12108.305     -8701.6233      6258.9198      1022067.1      57556.896      22.730646      23.564472    
      6000   3              12033.074     -8925.4304      6220.0324      978625.9       58159.103      22.495282      28.141844    
      7000   3.5            11972.697     -8828.9362      6188.8228      1009226.6      57563.92       22.727872      32.829792    
      8000   4              12106.306     -8950.9819      6257.8867      977933.36      58145.536      22.500531      37.545352    
      9000   4.5            12202.204     -8812.2321      6307.4572      999912.29      57887.156      22.600962      42.347236    
     10000   5              12136.651     -9005.9011      6273.5725      973481.94      58134.308      22.504876      47.190023    
Loop time of 18.0476 on 8 procs for 10000 steps with 4000 atoms

Performance: 23.937 ns/day, 1.003 hours/ns, 554.089 timesteps/s, 2.216 Matom-step/s
177.3% CPU use with 8 MPI tasks x 1 OpenMP threads

MPI task timing breakdown:
Section |  min time  |  avg time  |  max time  |%varavg| %total
---------------------------------------------------------------
Pair    | 10.262     | 10.455     | 10.632     |   3.5 | 57.93
Neigh   | 0.065171   | 0.065978   | 0.06689    |   0.2 |  0.37
Comm    | 3.6559     | 3.8451     | 4.0523     |   6.1 | 21.31
Output  | 0.00093354 | 0.0010441  | 0.0011112  |   0.2 |  0.01
Modify  | 3.0725     | 3.0864     | 3.1012     |   0.5 | 17.10
Other   |            | 0.5943     |            |       |  3.29

Nlocal:            500 ave         514 max         492 min
Histogram: 1 2 2 1 0 0 0 1 0 1
Nghost:         2316.5 ave        2326 max        2303 min
Histogram: 1 1 0 0 0 2 1 0 1 2
Neighs:        30794.5 ave       34611 max       27564 min
Histogram: 1 0 1 2 0 1 2 0 0 1

Total # of neighbors = 246356
Ave neighs/atom = 61.589
Neighbor list builds = 155
Dangerous builds = 0
Setting up Verlet run ...
  Unit style    : metal
  Current step  : 10000
  Time step     : 0.0005
WARNING: Fix STORE/ATOM not compatible with Kokkos sorting on device (src/KOKKOS/atom_kokkos.cpp:212)
WARNING: Fix with atom-based arrays not compatible with Kokkos sorting on device, switching to classic host sorting (src/KOKKOS/atom_kokkos.cpp:218)
Per MPI rank memory allocation (min/avg/max) = 5.509 | 5.509 | 5.509 Mbytes
   Step          Time           Temp          PotEng         KinEng         Press          Volume        Density        c_Msd[4]   
     10000   5              12136.651     -9005.9011      6273.5725      973481.94      58134.308      22.504876      47.190023    
     11000   5.5            3434.678      -10176.922      1775.4239      999671.59      53431.872      24.485487      47.860073    
     12000   6              3021.7753     -10383.609      1561.9899      998340.31      53065.685      24.654452      48.571132    
     13000   6.5            3031.3301     -10397.258      1566.9289      1002933.3      52982.243      24.693281      48.950854    
     14000   7              2976.0329     -10533.274      1538.3451      979639.09      53192.799      24.595536      49.423103    
     15000   7.5            3029.0835     -10364.513      1565.7675      1013508.4      52841.926      24.758852      49.699312    
     16000   8              3037.0451     -10410.777      1569.883       1003657.5      52944.137      24.711054      50.0652      
     17000   8.5            2955.1213     -10535.653      1527.5356      985790.2       53069.419      24.652718      50.550318    
     18000   9              3004.4105     -10483.792      1553.0138      993784.98      53013.735      24.678612      50.89832     
     19000   9.5            3092.5613     -10392.894      1598.58        1007232.4      52918.81       24.72288       51.166038    
     20000   10             3021.9149     -10493.781      1562.062       991900.23      53042.565      24.665199      51.486829    
     21000   10.5           3035.4828     -10547.271      1569.0754      980309.57      53163.363      24.609155      51.67188     
     22000   11             2977.1719     -10381.808      1538.9339      1011421.1      52846.811      24.756563      52.015156    
     23000   11.5           2971.7769     -10456.008      1536.1451      997397.78      52988.312      24.690452      52.332613    
     24000   12             3036.6863     -10530.548      1569.6975      986816.71      53075.571      24.64986       52.752301    
     25000   12.5           2961.0906     -10326.039      1530.6213      1020253.6      52772.123      24.791601      53.005033    
     26000   13             2984.1403     -10485.794      1542.5359      992569.44      53039.237      24.666746      53.288682    
     27000   13.5           2966.4903     -10432.602      1533.4124      1002211.6      52932.976      24.716264      53.632313    
     28000   14             3020.7873     -10333.873      1561.4792      1019771.8      52777.118      24.789254      53.787929    
     29000   14.5           2999.4215     -10552.272      1550.4349      982057.06      53123.327      24.627701      54.217321    
     30000   15             2948.1267     -10414.091      1523.9201      1003903.8      52923.709      24.720592      54.402718    
     31000   15.5           2995.3601     -10370.608      1548.3356      1010945        52876.248      24.742781      54.729533    
     32000   16             2931.172      -10574.691      1515.156       980337.38      53108.852      24.634413      54.968485    
     33000   16.5           3055.5686     -10453.971      1579.458       1002699.4      52896.331      24.733387      55.261087    
     34000   17             3025.7904     -10415.247      1564.0653      1009284        52843.575      24.758079      55.556089    
     35000   17.5           2995.1529     -10588.881      1548.2285      976520.71      53172.014      24.60515       55.927353    
     36000   18             2985.8754     -10398.133      1543.4328      1007973.9      52882.136      24.740026      56.333243    
     37000   18.5           2999.822      -10433.244      1550.6419      1004881.8      52881.023      24.740547      56.691045    
     38000   19             3048.7758     -10557.992      1575.9467      981893.24      53125.288      24.626792      56.995836    
     39000   19.5           3012.71       -10381.08       1557.3039      1013287.3      52819.436      24.769393      56.896759    
     40000   20             3042.2789     -10433.017      1572.5884      1007178.5      52857.214      24.75169       57.395754    
     41000   20.5           3025.8421     -10479.616      1564.092       995679.34      52993.171      24.688189      57.684127    
     42000   21             3029.6283     -10311.42       1566.0492      1021515        52775.456      24.790035      58.025674    
     43000   21.5           2964.4825     -10484.06       1532.3745      991253.11      53049.528      24.661961      58.374241    
     44000   22             3010.6375     -10410.385      1556.2326      1004787.6      52928.99       24.718125      58.680297    
     45000   22.5           3044.4977     -10465.12       1573.7353      993712.05      53051.494      24.661047      58.782283    
     46000   23             3030.9001     -10478.863      1566.7066      992248.07      53052.589      24.660538      59.218208    
     47000   23.5           2988.9581     -10368.699      1545.0263      1008581.3      52910.193      24.726906      59.301835    
     48000   24             2955.6822     -10358.207      1527.8256      1012216.1      52856.948      24.751815      59.678424    
     49000   24.5           3007.5416     -10573.911      1554.6323      979090.7       53156.987      24.612106      60.080343    
     50000   25             2989.7869     -10468.892      1545.4547      1001514.3      52891.645      24.735578      60.286768    
     51000   25.5           2983.2594     -10409.858      1542.0805      1008468.6      52857.963      24.75134       60.596268    
     52000   26             3053.9523     -10569.334      1578.6225      978043.86      53187.161      24.598143      60.968601    
     53000   26.5           3018.8589     -10439.827      1560.4823      1002377.3      52929.043      24.718101      61.011391    
     54000   27             2946.5189     -10298.754      1523.089       1022736        52764.03       24.795403      61.207444    
     55000   27.5           3020.6593     -10556.713      1561.413       983254.36      53102.932      24.63716       61.661937    
     56000   28             3061.4125     -10499.984      1582.4788      992771.14      53027.904      24.672018      61.96232     
     57000   28.5           3066.6763     -10391.512      1585.1997      1011968.7      52838.999      24.760223      62.0143      
     58000   29             2976.7616     -10431.726      1538.7218      1002968.2      52919.675      24.722476      62.42859     
     59000   29.5           2906.5125     -10573.8        1502.4092      977756.21      53149.633      24.615511      63.020711    
     60000   30             3054.9241     -10371.722      1579.1248      1011887.3      52860.531      24.750137      63.05587     
     61000   30.5           3046.1471     -10438.208      1574.5879      1001373        52955.077      24.705949      63.432679    
     62000   31             3003.0217     -10517.978      1552.2959      989012.66      53058.195      24.657933      63.704593    
     63000   31.5           2965.3645     -10438.371      1532.8305      1002629.7      52917.784      24.723359      63.881471    
     64000   32             2990.7345     -10416.829      1545.9445      1005063.9      52905.588      24.729059      64.181286    
     65000   32.5           3033.7506     -10440.715      1568.18        1003062.9      52913.353      24.72543       64.384302    
     66000   33             2957.8523     -10451.709      1528.9473      997848.84      52986.11       24.691479      64.862788    
     67000   33.5           2998.4696     -10530.942      1549.9429      989188.25      53025.417      24.673175      65.233021    
     68000   34             3032.1527     -10317.177      1567.354       1019859.8      52798.339      24.779291      65.66751     
     69000   34.5           2938.6207     -10481.281      1519.0063      993625.67      53013.07       24.678922      65.868676    
     70000   35             3007.015      -10521.991      1554.3601      992311.45      52985.892      24.69158       66.111432    
     71000   35.5           3012.3666     -10437.856      1557.1264      1003401.3      52913.66       24.725286      66.320419    
     72000   36             2987.2127     -10398.344      1544.124       1010591.2      52834.878      24.762154      66.777396    
     73000   36.5           3019.6982     -10508.311      1560.9162      990094.62      53047.965      24.662688      67.122746    
     74000   37             2994.5998     -10469.596      1547.9425      995244.1       53004.094      24.683101      67.526276    
     75000   37.5           2963.5049     -10444.677      1531.8692      1002307.9      52907.751      24.728048      67.842631    
     76000   38             2997.9384     -10438.083      1549.6683      1006044.8      52861.8        24.749543      68.071532    
     77000   38.5           3024.9455     -10577.139      1563.6286      977466.1       53177.86       24.602446      68.670144    
     78000   39             2993.0223     -10416.661      1547.1271      1007992.9      52852.638      24.753834      68.888082    
     79000   39.5           3027.6907     -10520.096      1565.0476      989811.83      53028.279      24.671844      69.20347     
     80000   40             3007.6743     -10484.59       1554.7009      995422.94      52988.577      24.690329      69.546813    
     81000   40.5           3002.922      -10351.88       1552.2444      1017491.7      52787.131      24.784552      69.680461    
     82000   41             2967.6773     -10463.318      1534.026       996636.58      52985.982      24.691538      70.190831    
     83000   41.5           2972.5927     -10548.54       1536.5668      981220.77      53135.624      24.622001      70.63009     
     84000   42             3083.6151     -10403.337      1593.9555      1010794.7      52842.147      24.758748      70.719047    
     85000   42.5           2996.6514     -10427.304      1549.003       1002616.5      52945.862      24.710248      71.201905    
     86000   43             3018.3021     -10527.418      1560.1945      987717.87      53067.594      24.653565      71.917604    
     87000   43.5           3032.36       -10384.738      1567.4612      1012972.3      52812.363      24.772711      72.015647    
     88000   44             2951.7735     -10363.191      1525.8051      1013175.6      52833.823      24.762649      72.208806    
     89000   44.5           3006.0308     -10520.323      1553.8513      989276.07      53043.52       24.664755      72.614576    
     90000   45             3061.1927     -10432.26       1582.3652      1004718.1      52896.302      24.7334        72.809175    
     91000   45.5           3051.9237     -10376.179      1577.5739      1008228.9      52924.56       24.720194      73.113663    
     92000   46             2961.3288     -10470.245      1530.7444      990930.23      53072.106      24.65147       73.649952    
     93000   46.5           2996.9075     -10427.662      1549.1354      1003558.3      52918.746      24.72291       74.001444    
     94000   47             2946.1091     -10467.77       1522.8771      994014.6       53024.569      24.67357       74.464558    
     95000   47.5           3042.9609     -10362.417      1572.9409      1017704.8      52774.203      24.790623      74.52852     
     96000   48             2951.0241     -10404.378      1525.4178      1004599.3      52923.442      24.720716      74.90563     
     97000   48.5           3044.4928     -10453.175      1573.7328      998368.66      52984.078      24.692426      75.3319      
     98000   49             3014.9068     -10475.517      1558.4394      995249.69      53010.085      24.680311      75.641014    
     99000   49.5           3004.9464     -10440.257      1553.2908      999118.48      52979.487      24.694565      76.038318    
    100000   50             3035.0255     -10353.991      1568.839       1013128.9      52856.75       24.751908      76.186274    
    101000   50.5           2926.2876     -10516.709      1512.6312      988264.48      53046.246      24.663487      76.525974    
    102000   51             2880.1613     -10474.69       1488.788       995324.39      52974.546      24.696869      76.857951    
    103000   51.5           3018.4954     -10290.718      1560.2945      1026363.2      52710.86       24.820415      76.874759    
    104000   52             3048.7119     -10480.611      1575.9137      997547.63      52960.592      24.703376      77.291879    
    105000   52.5           3005.2372     -10536.157      1553.4411      987616.62      53049.434      24.662005      77.746409    
    106000   53             2970.7912     -10314.226      1535.6356      1020243.5      52787.15       24.784543      78.104114    
    107000   53.5           2938.4919     -10446.87       1518.9397      996887.94      52990.716      24.689333      78.604218    
    108000   54             2988.7071     -10584.869      1544.8965      973838.1       53223.584      24.58131       79.135221    
    109000   54.5           3043.81       -10334.662      1573.3798      1016461.7      52839.35       24.760059      79.294344    
    110000   55             3020.6454     -10424.023      1561.4058      1001799.2      52963.563      24.70199       79.835499    
Loop time of 183.242 on 8 procs for 100000 steps with 4000 atoms

Performance: 23.575 ns/day, 1.018 hours/ns, 545.726 timesteps/s, 2.183 Matom-step/s
173.8% CPU use with 8 MPI tasks x 1 OpenMP threads

MPI task timing breakdown:
Section |  min time  |  avg time  |  max time  |%varavg| %total
---------------------------------------------------------------
Pair    | 109.08     | 109.33     | 109.53     |   1.4 | 59.66
Neigh   | 0.32813    | 0.33054    | 0.33356    |   0.4 |  0.18
Comm    | 37.148     | 37.309     | 37.532     |   2.1 | 20.36
Output  | 0.019488   | 0.020949   | 0.023646   |   0.9 |  0.01
Modify  | 30.353     | 30.513     | 30.68      |   1.9 | 16.65
Other   |            | 5.742      |            |       |  3.13

Nlocal:            500 ave         508 max         491 min
Histogram: 1 1 1 0 0 2 0 1 0 2
Nghost:        2431.75 ave        2447 max        2417 min
Histogram: 1 0 2 0 2 0 0 1 1 1
Neighs:        34177.4 ave       34836 max       33406 min
Histogram: 1 0 1 0 1 3 0 0 1 1

Total # of neighbors = 273419
Ave neighs/atom = 68.35475
Neighbor list builds = 672
Dangerous builds = 0
Total wall time: 0:03:23
