LAMMPS (2 Apr 2025)
KOKKOS mode with Kokkos version 4.6.0 is enabled (src/KOKKOS/kokkos.cpp:72)
  will use up to 1 GPU(s) per node
  using 1 OpenMP thread(s) per MPI task
Lattice spacing in x,y,z = 4.08 4.08 4.08
Created orthogonal box = (0 0 0) to (40.8 40.8 40.8)
  2 by 2 by 2 MPI processor grid
Created 4000 atoms
  using lattice units in orthogonal box = (0 0 0) to (40.8 40.8 40.8)
  create_atoms CPU = 0.007 seconds
Reading eam potential file Au_u3.eam with DATE: 2007-06-11
Neighbor list info ...
  update: every = 1 steps, delay = 0 steps, check = yes
  max neighbors/atom: 2000, page size: 100000
  master list distance cutoff = 7.55
  ghost atom cutoff = 7.55
  binsize = 7.55, bins = 6 6 6
  1 neighbor lists, perpetual/occasional/extra = 1 0 0
  (1) pair eam/kk, perpetual
      attributes: half, newton on, kokkos_device
      pair build: half/bin/newton/kk/device
      stencil: half/bin/3d
      bin: kk/device
Setting up Verlet run ...
  Unit style    : metal
  Current step  : 0
  Time step     : 0.0005
WARNING: Fix STORE/ATOM not compatible with sending data in Kokkos communication (src/KOKKOS/comm_kokkos.cpp:766)
WARNING: Fix with atom-based arrays not compatible with sending data in Kokkos communication, switching to classic exchange/border communication (src/KOKKOS/comm_kokkos.cpp:779)
WARNING: Fix STORE/ATOM not compatible with Kokkos sorting on device (src/KOKKOS/atom_kokkos.cpp:212)
WARNING: Fix with atom-based arrays not compatible with Kokkos sorting on device, switching to classic host sorting (src/KOKKOS/atom_kokkos.cpp:218)
Per MPI rank memory allocation (min/avg/max) = 4.315 | 4.315 | 4.315 Mbytes
   Step          Time           Temp          PotEng         KinEng         Press          Volume        Density        c_Msd[4]   
         0   0              12000         -15720          6202.9358      97551.96       67917.312      19.263209      0            
      1000   0.5            12005.692     -8870.7426      6205.8781      1000404        57703.69       22.67282       4.6342262    
      2000   1              11947.08      -8887.4053      6175.5808      993882.56      57804.663      22.633216      9.3470082    
      3000   1.5            12129.226     -8825.3636      6269.7341      1004575.4      57754.421      22.652905      14.192012    
      4000   2              12054.418     -8783.2044      6231.0652      1003852.2      57827.739      22.624184      18.752604    
      5000   2.5            12108.305     -8701.6234      6258.9197      1022067.1      57556.896      22.730646      23.564472    
      6000   3              12033.072     -8925.4284      6220.0311      978625.54      58159.113      22.495278      28.141845    
      7000   3.5            11965.934     -8824.9267      6185.3267      1009399.8      57564.248      22.727742      32.827677    
      8000   4              12181.672     -8970.3179      6296.8444      982882.52      57974.241      22.567012      37.679962    
      9000   4.5            12256.919     -8815.5124      6335.7399      1002500        57818.63       22.627748      42.590938    
     10000   5              12307.68      -8856.5082      6361.9791      996302.59      57908.877      22.592485      47.850207    
Loop time of 18.0788 on 8 procs for 10000 steps with 4000 atoms

Performance: 23.895 ns/day, 1.004 hours/ns, 553.133 timesteps/s, 2.213 Matom-step/s
177.1% CPU use with 8 MPI tasks x 1 OpenMP threads

MPI task timing breakdown:
Section |  min time  |  avg time  |  max time  |%varavg| %total
---------------------------------------------------------------
Pair    | 10.331     | 10.49      | 10.669     |   3.3 | 58.02
Neigh   | 0.064364   | 0.065263   | 0.066704   |   0.3 |  0.36
Comm    | 3.652      | 3.8465     | 4.0159     |   5.9 | 21.28
Output  | 0.00099649 | 0.0011236  | 0.0012205  |   0.2 |  0.01
Modify  | 3.0668     | 3.0829     | 3.0938     |   0.5 | 17.05
Other   |            | 0.5931     |            |       |  3.28

Nlocal:            500 ave         505 max         495 min
Histogram: 1 0 1 0 1 2 1 0 1 1
Nghost:         2326.5 ave        2350 max        2309 min
Histogram: 1 1 1 1 1 1 1 0 0 1
Neighs:          30877 ave       33455 max       28243 min
Histogram: 1 1 0 1 1 0 1 2 0 1

Total # of neighbors = 247016
Ave neighs/atom = 61.754
Neighbor list builds = 153
Dangerous builds = 0
Setting up Verlet run ...
  Unit style    : metal
  Current step  : 10000
  Time step     : 0.0005
WARNING: Fix STORE/ATOM not compatible with Kokkos sorting on device (src/KOKKOS/atom_kokkos.cpp:212)
WARNING: Fix with atom-based arrays not compatible with Kokkos sorting on device, switching to classic host sorting (src/KOKKOS/atom_kokkos.cpp:218)
Per MPI rank memory allocation (min/avg/max) = 5.509 | 5.509 | 5.509 Mbytes
   Step          Time           Temp          PotEng         KinEng         Press          Volume        Density        c_Msd[4]   
     10000   5              12307.68      -8856.5082      6361.9791      996302.59      57908.877      22.592485      47.850207    
     11000   5.5            4446.5447     -10002.119      2298.4693      996182.81      53985.045      24.234589      49.216989    
     12000   6              3958.1078     -10130.116      2045.9907      1000335.2      53614.753      24.401966      50.037351    
     13000   6.5            3965.6885     -10130.038      2049.9093      1002105.5      53589.533      24.41345       50.799728    
     14000   7              3990.2418     -10299.253      2062.6012      974709.07      53848.466      24.296057      51.64152     
     15000   7.5            3956.2004     -10169.239      2045.0048      1002273.1      53511.021      24.44927       52.212916    
     16000   8              3976.5245     -10182.921      2055.5105      990931.71      53722.497      24.353027      53.345645    
     17000   8.5            4037.3341     -10125.093      2086.9437      1012029.3      53423.066      24.489523      53.988713    
     18000   9              4072.2272     -10093.292      2104.9803      1010143.1      53513.438      24.448166      54.780978    
     19000   9.5            4111.9022     -10222.203      2125.4888      987630         53738.695      24.345686      55.45028     
     20000   10             3940.0382     -10201.552      2036.6504      993882.74      53630.278      24.394903      56.184093    
     21000   10.5           4098.5251     -10034.534      2118.574       1018006.5      53463.856      24.470839      57.012595    
     22000   11             3997.0651     -10183.499      2066.1282      996162.54      53623.298      24.398078      57.72903     
     23000   11.5           3932.729      -10214.222      2032.8721      991471.71      53643.168      24.389041      58.29385     
     24000   12             4039.0807     -10197.287      2087.8465      995013.94      53627.8        24.39603       58.984343    
     25000   12.5           3958.3877     -10080.539      2046.1354      1021752.2      53292.061      24.549724      59.591179    
     26000   13             3954.9596     -10254.787      2044.3634      985699.18      53708.742      24.359264      60.336899    
     27000   13.5           4069.9807     -10234.097      2103.8191      992968.23      53616.511      24.401166      60.900786    
     28000   14             3988.7068     -10080.715      2061.8077      1015556.9      53423.792      24.48919       61.607499    
     29000   14.5           4043.5546     -10221.007      2090.1592      992825.62      53638.07       24.391359      62.229766    
     30000   15             4032.9995     -10205.612      2084.7031      991581.66      53680.365      24.372141      62.881299    
     31000   15.5           4028.1539     -10033.138      2082.1984      1020799.5      53398.45       24.500812      63.735037    
     32000   16             3952.9952     -10224.223      2043.348       988145.5       53702.472      24.362108      64.600844    
     33000   16.5           3915.7403     -10194.833      2024.0905      995441.51      53599.549      24.408888      65.283006    
     34000   17             4033.712      -10051.078      2085.0714      1018366        53410.124      24.495457      65.950033    
     35000   17.5           4101.4834     -10226.471      2120.1032      989310.21      53710.479      24.358476      66.805547    
     36000   18             4030.8953     -10192.307      2083.6154      993212.44      53672.758      24.375595      67.780207    
     37000   18.5           4067.4428     -10095.863      2102.5072      1015467.2      53406.351      24.497188      68.2421      
     38000   19             4024.7284     -10235.239      2080.4277      988637.44      53691.975      24.366871      69.09786     
     39000   19.5           4019.233      -10211.159      2077.587       1000667        53496.541      24.455888      69.826886    
     40000   20             4012.0339     -10036.474      2073.8657      1021151.1      53382.527      24.50812       70.592258    
     41000   20.5           3977.111      -10248.983      2055.8137      987878.17      53675.594      24.374307      71.196461    
     42000   21             3953.1392     -10134.15       2043.4224      999341.92      53626.856      24.396459      71.903081    
     43000   21.5           4016.9621     -10034.355      2076.4132      1021724        53377.001      24.510658      72.334738    
     44000   22             4030.2407     -10240.106      2083.277       984683.61      53761.279      24.335459      72.967522    
     45000   22.5           4023.9727     -10113.021      2080.037       1005030.8      53569.693      24.422492      73.901126    
     46000   23             4040.5783     -10132.554      2088.6206      1007073        53508.244      24.450539      74.499106    
     47000   23.5           4007.6333     -10183.237      2071.591       995023.7       53652.33       24.384876      75.186883    
     48000   24             3982.3375     -10146.335      2058.5153      1000159.1      53601.523      24.40799       76.004771    
     49000   24.5           4001.1573     -10017.208      2068.2435      1025844.2      53325.207      24.534465      76.721284    
     50000   25             3973.7347     -10188.084      2054.0684      997931.16      53573.636      24.420695      77.613892    
     51000   25.5           3920.9141     -10216.949      2026.7649      994541.96      53592.166      24.412251      78.251712    
     52000   26             3930.5256     -10102.04       2031.7332      1008433.1      53507.334      24.450955      79.075256    
     53000   26.5           3979.6239     -10116.159      2057.1126      1004010.7      53570.232      24.422247      80.011212    
     54000   27             3993.5867     -10194.237      2064.3302      992925.29      53664.537      24.379329      80.691027    
     55000   27.5           4053.1591     -10172.485      2095.1238      1000250.9      53569.424      24.422615      81.527557    
     56000   28             3977.9245     -10188.399      2056.2342      997585.85      53585.573      24.415255      81.846288    
     57000   28.5           3942.397      -10035.201      2037.8697      1019954.9      53391.917      24.50381       82.455998    
     58000   29             4049.4295     -10187.356      2093.196       997614.98      53596.146      24.410438      83.215595    
     59000   29.5           3986.9        -10186.92       2060.8738      997277.6       53597.186      24.409964      83.828783    
     60000   30             3959.4067     -10043.979      2046.6621      1019973.3      53378.647      24.509902      84.542538    
     61000   30.5           4018.4818     -10227.586      2077.1987      988435.17      53699.912      24.363269      85.209431    
     62000   31             3974.2723     -10250.611      2054.3463      987811.09      53667.529      24.37797       85.639566    
     63000   31.5           3998.4277     -10093.92       2066.8325      1011320.4      53466.493      24.469632      86.112027    
     64000   32             4070.634      -10207.763      2104.1568      994399.08      53626.55       24.396598      86.869685    
     65000   32.5           4011.1334     -10115.887      2073.4003      1007537.8      53502.488      24.453169      87.685213    
     66000   33             4053.6706     -10094.226      2095.3882      1013067        53457.695      24.473659      88.521968    
     67000   33.5           3972.8015     -10278.866      2053.5861      981559.62      53743.879      24.343338      89.117063    
     68000   34             4044.978      -10122.007      2090.8949      1005958.2      53545.174      24.433675      89.534192    
     69000   34.5           4045.0758     -10121.334      2090.9455      1011976.6      53420.041      24.49091       90.416206    
     70000   35             4005.6213     -10266.489      2070.551       982771.17      53748.113      24.34142       91.387372    
     71000   35.5           4084.5757     -10098.486      2111.3634      1009791.3      53514.202      24.447817      91.852647    
     72000   36             4028.3743     -10125.135      2082.3123      1008307.1      53493.684      24.457194      92.451173    
     73000   36.5           4091.739      -10280.026      2115.0662      982305.44      53740.254      24.34498       93.169185    
     74000   37             3999.7257     -10100.293      2067.5035      1010310.3      53484.151      24.461553      93.871922    
     75000   37.5           3961.1593     -10106.016      2047.5681      1009199.6      53483.226      24.461976      94.90473     
     76000   38             3990.5119     -10190.984      2062.7408      992092.77      53678.342      24.373059      95.974727    
     77000   38.5           4000.6527     -10174.417      2067.9827      998987.1       53584.618      24.41569       96.588888    
     78000   39             3980.0445     -10080.732      2057.3301      1016457.2      53397.884      24.501072      97.247605    
     79000   39.5           4035.2004     -10269.722      2085.8408      983970.21      53728.234      24.350427      98.034702    
     80000   40             3964.3777     -10147.137      2049.2317      1003698.9      53528.836      24.441133      98.877178    
     81000   40.5           3940.1638     -10028.522      2036.7153      1025572.7      53305.187      24.543679      99.378032    
     82000   41             3922.0685     -10255.822      2027.3616      985050.13      53691.625      24.367029      100.51879    
     83000   41.5           3943.9126     -10144.552      2038.6531      1004452.5      53520.888      24.444763      100.89533    
     84000   42             4049.165      -10173.223      2093.0592      1000584.7      53552.559      24.430306      101.68107    
     85000   42.5           3936.2646     -10139.019      2034.6997      1003225.7      53544.995      24.433757      102.24672    
     86000   43             4028.8531     -10031.404      2082.5598      1018060        53458.794      24.473156      102.85488    
     87000   43.5           4028.3267     -10222.856      2082.2877      987208.42      53730.745      24.349288      103.23737    
     88000   44             4062.4666     -10194.291      2099.935       999990.87      53552.911      24.430146      103.61615    
     89000   44.5           4002.9738     -10050.37       2069.1825      1018952.9      53402.465      24.49897       104.70159    
     90000   45             4048.0993     -10176.786      2092.5083      995969.98      53646.815      24.387383      105.53303    
     91000   45.5           4030.7793     -10119.325      2083.5554      1007926        53508.507      24.450419      106.05353    
     92000   46             3945.4189     -10212.125      2039.4317      992847.54      53632.186      24.394035      106.85061    
     93000   46.5           3910.5393     -10193.587      2021.402       994317.14      53629.339      24.39533       107.69603    
     94000   47             3937.4955     -10108.467      2035.336       1009136.2      53468.175      24.468862      108.35032    
     95000   47.5           3916.5377     -10154.239      2024.5027      994963.45      53673.303      24.375348      109.24206    
     96000   48             3911.9491     -10209.242      2022.1308      989693.09      53679.686      24.372449      109.88344    
     97000   48.5           4045.6012     -10120.629      2091.2171      1011244.8      53443.296      24.480253      110.52956    
     98000   49             4073.2741     -10175.539      2105.5215      999504.13      53590.329      24.413088      110.88581    
     99000   49.5           3964.0464     -10251.779      2049.0605      984554.17      53729.378      24.349908      111.8592     
    100000   50             4057.1488     -10121.241      2097.1862      1003425.5      53598.842      24.40921       112.39593    
    101000   50.5           4034.7786     -10087.162      2085.6227      1016601.5      53391.316      24.504086      112.99345    
    102000   51             3977.1035     -10257.336      2055.8098      982626.89      53756.451      24.337645      113.951      
    103000   51.5           4044.4237     -10127.019      2090.6084      1007724.8      53501.504      24.453619      114.14428    
    104000   52             3958.353      -10116.115      2046.1174      1007605.6      53502.272      24.453268      114.94427    
    105000   52.5           3903.7354     -10199.446      2017.885       988676.01      53712.683      24.357476      115.88125    
    106000   53             4022.934      -10184.22       2079.5001      998792.15      53566.851      24.423788      116.35786    
    107000   53.5           3981.855      -10068.324      2058.2659      1012567.6      53485.407      24.460979      117.2663     
    108000   54             4002.3759     -10288.849      2068.8734      976015.11      53847.455      24.296513      118.64428    
    109000   54.5           4084.1953     -10173.355      2111.1668      997814.79      53622.746      24.398329      118.67878    
    110000   55             4077.9323     -10201.959      2107.9294      995561.24      53618.728      24.400157      119.50451    
Loop time of 183.344 on 8 procs for 100000 steps with 4000 atoms

Performance: 23.562 ns/day, 1.019 hours/ns, 545.423 timesteps/s, 2.182 Matom-step/s
174.0% CPU use with 8 MPI tasks x 1 OpenMP threads

MPI task timing breakdown:
Section |  min time  |  avg time  |  max time  |%varavg| %total
---------------------------------------------------------------
Pair    | 108.93     | 109.19     | 109.6      |   2.0 | 59.56
Neigh   | 0.38971    | 0.39356    | 0.39822    |   0.5 |  0.21
Comm    | 37.065     | 37.46      | 37.745     |   3.4 | 20.43
Output  | 0.020293   | 0.021589   | 0.023382   |   0.7 |  0.01
Modify  | 30.316     | 30.515     | 30.662     |   2.1 | 16.64
Other   |            | 5.76       |            |       |  3.14

Nlocal:            500 ave         507 max         493 min
Histogram: 1 0 1 0 2 1 2 0 0 1
Nghost:        2431.25 ave        2442 max        2424 min
Histogram: 2 2 1 0 0 0 0 1 0 2
Neighs:        33743.6 ave       34309 max       33093 min
Histogram: 1 0 1 2 0 1 0 1 0 2

Total # of neighbors = 269949
Ave neighs/atom = 67.48725
Neighbor list builds = 805
Dangerous builds = 0
Total wall time: 0:03:23
