LAMMPS (2 Apr 2025)
KOKKOS mode with Kokkos version 4.6.0 is enabled (src/KOKKOS/kokkos.cpp:72)
  will use up to 1 GPU(s) per node
  using 1 OpenMP thread(s) per MPI task
Lattice spacing in x,y,z = 4.08 4.08 4.08
Created orthogonal box = (0 0 0) to (40.8 40.8 40.8)
  2 by 2 by 2 MPI processor grid
Created 4000 atoms
  using lattice units in orthogonal box = (0 0 0) to (40.8 40.8 40.8)
  create_atoms CPU = 0.007 seconds
Reading eam potential file Au_u3.eam with DATE: 2007-06-11
Neighbor list info ...
  update: every = 1 steps, delay = 0 steps, check = yes
  max neighbors/atom: 2000, page size: 100000
  master list distance cutoff = 7.55
  ghost atom cutoff = 7.55
  binsize = 7.55, bins = 6 6 6
  1 neighbor lists, perpetual/occasional/extra = 1 0 0
  (1) pair eam/kk, perpetual
      attributes: half, newton on, kokkos_device
      pair build: half/bin/newton/kk/device
      stencil: half/bin/3d
      bin: kk/device
Setting up Verlet run ...
  Unit style    : metal
  Current step  : 0
  Time step     : 0.0005
WARNING: Fix STORE/ATOM not compatible with sending data in Kokkos communication (src/KOKKOS/comm_kokkos.cpp:766)
WARNING: Fix with atom-based arrays not compatible with sending data in Kokkos communication, switching to classic exchange/border communication (src/KOKKOS/comm_kokkos.cpp:779)
WARNING: Fix STORE/ATOM not compatible with Kokkos sorting on device (src/KOKKOS/atom_kokkos.cpp:212)
WARNING: Fix with atom-based arrays not compatible with Kokkos sorting on device, switching to classic host sorting (src/KOKKOS/atom_kokkos.cpp:218)
Per MPI rank memory allocation (min/avg/max) = 4.315 | 4.315 | 4.315 Mbytes
   Step          Time           Temp          PotEng         KinEng         Press          Volume        Density        c_Msd[4]   
         0   0              12000         -15720          6202.9358      97551.96       67917.312      19.263209      0            
      1000   0.5            12005.692     -8870.7426      6205.8781      1000404        57703.69       22.67282       4.6342262    
      2000   1              11947.08      -8887.4053      6175.5808      993882.56      57804.663      22.633216      9.3470082    
      3000   1.5            12129.226     -8825.3636      6269.7341      1004575.4      57754.421      22.652905      14.192012    
      4000   2              12054.418     -8783.2044      6231.0652      1003852.2      57827.739      22.624184      18.752604    
      5000   2.5            12108.304     -8701.6232      6258.9195      1022067.1      57556.896      22.730646      23.564472    
      6000   3              12033.061     -8925.4247      6220.0256      978625.97      58159.109      22.495279      28.141838    
      7000   3.5            12000.622     -8822.4408      6203.2572      1010200.1      57560.576      22.729192      32.82371     
      8000   4              12301.434     -8790.1411      6358.7504      1007642.8      57780.68       22.64261       37.388609    
      9000   4.5            12199.105     -8717.8017      6305.8557      1017656.9      57642.518      22.696881      42.380188    
     10000   5              12015.094     -8845.2409      6210.7383      996863.46      57834.542      22.621523      47.092907    
Loop time of 18.0168 on 8 procs for 10000 steps with 4000 atoms

Performance: 23.978 ns/day, 1.001 hours/ns, 555.036 timesteps/s, 2.220 Matom-step/s
177.3% CPU use with 8 MPI tasks x 1 OpenMP threads

MPI task timing breakdown:
Section |  min time  |  avg time  |  max time  |%varavg| %total
---------------------------------------------------------------
Pair    | 10.255     | 10.436     | 10.619     |   3.2 | 57.93
Neigh   | 0.064219   | 0.065361   | 0.067096   |   0.4 |  0.36
Comm    | 3.6476     | 3.8379     | 4.0289     |   5.6 | 21.30
Output  | 0.00093954 | 0.0010671  | 0.0011642  |   0.2 |  0.01
Modify  | 3.071      | 3.0854     | 3.0997     |   0.5 | 17.12
Other   |            | 0.5907     |            |       |  3.28

Nlocal:            500 ave         506 max         494 min
Histogram: 1 1 1 0 0 1 2 1 0 1
Nghost:        2317.62 ave        2325 max        2312 min
Histogram: 2 0 2 0 1 0 1 0 0 2
Neighs:        30975.2 ave       33146 max       28249 min
Histogram: 1 0 1 1 0 1 1 1 0 2

Total # of neighbors = 247802
Ave neighs/atom = 61.9505
Neighbor list builds = 154
Dangerous builds = 0
Setting up Verlet run ...
  Unit style    : metal
  Current step  : 10000
  Time step     : 0.0005
WARNING: Fix STORE/ATOM not compatible with Kokkos sorting on device (src/KOKKOS/atom_kokkos.cpp:212)
WARNING: Fix with atom-based arrays not compatible with Kokkos sorting on device, switching to classic host sorting (src/KOKKOS/atom_kokkos.cpp:218)
Per MPI rank memory allocation (min/avg/max) = 5.509 | 5.509 | 5.509 Mbytes
   Step          Time           Temp          PotEng         KinEng         Press          Volume        Density        c_Msd[4]   
     10000   5              12015.094     -8845.2409      6210.7383      996863.46      57834.542      22.621523      47.092907    
     11000   5.5            5232.6092     -9806.5491      2704.7949      994028.07      54521.444      23.996162      48.863063    
     12000   6              4976.6088     -9921.3073      2572.4654      997910.31      54193.529      24.141358      50.134245    
     13000   6.5            4878.7769     -9878.5958      2521.895       1004061        54156.6        24.15782       51.710443    
     14000   7              5123.7533     -9841.5725      2648.5261      1017021.7      54001.716      24.227108      52.685639    
     15000   7.5            5012.4636     -9946.3078      2590.9992      992657.04      54278.482      24.103574      53.946609    
     16000   8              5075.7095     -9867.9715      2623.6917      1006935.5      54139.763      24.165333      54.859311    
     17000   8.5            4956.3287     -10018.73       2561.9824      985174.54      54303.916      24.092285      56.077681    
     18000   9              5013.7756     -9954.5307      2591.6774      991163.28      54289.358      24.098745      57.212769    
     19000   9.5            5094.5343     -9861.0188      2633.4225      1012484.4      54045.235      24.207599      58.21808     
     20000   10             5133.8531     -10019.963      2653.7468      984591.16      54340.233      24.076183      59.72081     
     21000   10.5           5008.4656     -9925.7014      2588.9325      995845.42      54237.241      24.121902      60.738769    
     22000   11             5064.4762     -9937.0638      2617.8851      1001093.6      54147.69       24.161795      61.741041    
     23000   11.5           4978.5571     -10008.377      2573.4725      980459.81      54421.016      24.040444      63.111698    
     24000   12             5012.2686     -9894.1533      2590.8984      1000676.3      54195.278      24.140579      64.066995    
     25000   12.5           5003.8848     -9934.1801      2586.5647      999660.27      54152.635      24.159589      65.38418     
     26000   13             4902.9116     -9976.7001      2534.3705      993615.04      54185.737      24.14483       66.661592    
     27000   13.5           4979.7793     -10032.147      2574.1043      985658.23      54272.264      24.106336      67.64666     
     28000   14             5139.727      -9948.4805      2656.7831      1004788        54075.674      24.193973      68.698529    
     29000   14.5           4962.7566     -10002.828      2565.3051      985865.34      54315.949      24.086947      69.730282    
     30000   15             4966.1748     -9831.475       2567.072       1012298.1      54078.299      24.192799      71.082069    
     31000   15.5           5038.0064     -9909.456       2604.2025      1003091.1      54132.038      24.168781      72.015158    
     32000   16             4959.0806     -9921.8822      2563.4049      1000679.9      54150.399      24.160587      73.410696    
     33000   16.5           4955.519      -9863.3813      2561.5639      1013714.9      53987.194      24.233625      74.113697    
     34000   17             4957.7109     -9938.5627      2562.6969      994133.03      54245.184      24.11837       75.420664    
     35000   17.5           5021.4435     -9991.7193      2595.641       987602.45      54307.336      24.090768      76.307462    
     36000   18             4875.9951     -9948.8808      2520.457       996243.71      54178.202      24.148188      77.425232    
     37000   18.5           4948.0351     -9797.1227      2557.6954      1023325.4      53896.835      24.274253      78.594312    
     38000   19             4902.6355     -10032.482      2534.2278      981938.71      54331.853      24.079897      79.913928    
     39000   19.5           5033.3248     -9890.0724      2601.7825      1004993.7      54141.702      24.164468      81.192069    
     40000   20             4938.3381     -9794.1649      2552.6829      1015882.7      54052.84       24.204194      82.470745    
     41000   20.5           4989.6496     -9947.5211      2579.2064      993405.11      54257.274      24.112996      83.752321    
     42000   21             4985.5011     -9933.0251      2577.062       995116.98      54242.56       24.119537      84.946806    
     43000   21.5           5008.861      -9908.0224      2589.1369      997251.61      54247.724      24.117241      86.343238    
     44000   22             4957.3199     -10029.945      2562.4948      981044.54      54364.494      24.065439      87.712897    
     45000   22.5           5034.1151     -9847.8829      2602.1911      1011826.7      54069.025      24.196948      88.480824    
     46000   23             5100.8913     -9815.7949      2636.7085      1010640.6      54169.494      24.15207       89.552352    
     47000   23.5           4922.305      -10042.77       2544.3952      974625.23      54453.371      24.02616       90.628728    
     48000   24             5048.9645     -9897.6243      2609.8669      1005547.2      54122.385      24.173092      91.927685    
     49000   24.5           5038.9522     -9910.1657      2604.6914      1002991.3      54134.414      24.167721      93.142465    
     50000   25             5025.1943     -10066.371      2597.5798      977067.98      54399.523      24.049943      94.781348    
     51000   25.5           5081.3707     -9929.0853      2626.618       1003480.6      54108.891      24.179121      95.738389    
     52000   26             5098.5736     -9948.1872      2635.5104      998469.42      54173.523      24.150274      96.992448    
     53000   26.5           4974.7771     -9916.566       2571.5186      999415.44      54188.052      24.143798      98.661907    
     54000   27             5021.6471     -9948.6298      2595.7462      1000930.2      54101.006      24.182645      99.964409    
     55000   27.5           5069.3372     -9958.2741      2620.3978      997768.61      54173.948      24.150084      101.07887    
     56000   28             5150.0439     -9843.5378      2662.116       1017469.7      53992.829      24.231096      101.49443    
     57000   28.5           5150.8504     -10007.537      2662.5329      987627.96      54300.491      24.093804      102.91946    
     58000   29             4988.9289     -9920.3698      2578.8338      996193.07      54252.344      24.115187      104.19307    
     59000   29.5           5012.6796     -9854.4329      2591.1108      1011683.5      54048.288      24.206232      105.29315    
     60000   30             5030.7499     -9998.2096      2600.4516      981589.51      54412.178      24.044349      106.59059    
     61000   30.5           5075.4506     -9895.9509      2623.5579      1004213.7      54154.526      24.158745      107.80225    
     62000   31             4961.6963     -9855.3982      2564.757       1006375.2      54133.928      24.167938      108.96619    
     63000   31.5           5058.1921     -10033.596      2614.6368      985572.15      54275.573      24.104866      110.41579    
     64000   32             5012.9688     -9878.6939      2591.2603      1009995        54060.859      24.200603      111.32253    
     65000   32.5           5036.4671     -9940.7215      2603.4068      997493.38      54194.699      24.140837      112.63193    
     66000   33             5063.6071     -9770.3303      2617.4358      1025269.2      53933.246      24.257865      113.0707     
     67000   33.5           5016.4191     -9956.4686      2593.0438      995788.52      54200.842      24.138101      114.60317    
     68000   34             5026.6437     -9951.047       2598.329       993745.93      54258.196      24.112586      115.97356    
     69000   34.5           5017.5543     -9771.998       2593.6306      1030672.5      53830.463      24.304183      116.28646    
     70000   35             4907.4818     -9915.9088      2536.7329      994623.18      54259.486      24.112013      118.09831    
     71000   35.5           4935.6747     -9912.5164      2551.3061      1003181.5      54116.094      24.175902      119.42542    
     72000   36             5006.7301     -9851.4551      2588.0355      1015711.1      53966.817      24.242775      120.58738    
     73000   36.5           4974.4332     -9966.6921      2571.3408      993763.65      54209.293      24.134338      122.11411    
     74000   37             4921.293      -9909.1896      2543.8721      995246.51      54270.88       24.10695       123.51476    
     75000   37.5           5111.294      -9849.3182      2642.0857      1011807.9      54086.337      24.189203      124.45286    
     76000   38             4914.7181     -9953.0378      2540.4734      990281.37      54295.008      24.096237      126.15961    
     77000   38.5           5007.0191     -9945.4476      2588.1849      993307.76      54259.668      24.111932      127.16548    
     78000   39             5068.5533     -9827.3765      2619.9926      1021398.2      53919.772      24.263927      127.61474    
     79000   39.5           5034.2087     -10013.535      2602.2395      985433.22      54318.373      24.085872      128.9398     
     80000   40             4989.5622     -9854.288       2579.1612      1011582.2      54062.004      24.200091      130.18461    
     81000   40.5           4936.299      -9986.4019      2551.6288      987043.83      54312.598      24.088434      131.59156    
     82000   41             5012.6715     -10011.741      2591.1067      987505.01      54271.966      24.106468      132.65613    
     83000   41.5           5042.068      -9946.0485      2606.302       999914.79      54142.266      24.164216      133.63419    
     84000   42             5016.803      -9992.5663      2593.2422      990602.63      54255.4        24.113828      134.94477    
     85000   42.5           4992.3719     -9792.2084      2580.6136      1020360.2      53981.662      24.236108      135.78596    
     86000   43             5032.2904     -9869.04        2601.2479      1005597.5      54162.269      24.155292      136.98715    
     87000   43.5           5012.8459     -9914.8696      2591.1968      998318.03      54223.666      24.127941      138.05975    
     88000   44             5087.1569     -9917.9409      2629.609       1005144.4      54096.823      24.184515      138.63697    
     89000   44.5           5000.3118     -9977.0314      2584.7178      990906.52      54262.843      24.110521      140.41889    
     90000   45             4883.1811     -9929.7577      2524.1716      988935.16      54347.561      24.072937      141.55652    
     91000   45.5           4978.2373     -9737.8564      2573.3072      1025283.8      53970.557      24.241095      142.26746    
     92000   46             4982.2321     -9948.978       2575.3722      998611.82      54146.709      24.162233      142.98007    
     93000   46.5           5036.6518     -10015.882      2603.5023      983491.44      54356.034      24.069184      144.66164    
     94000   47             4876.301      -9931.2382      2520.6152      999153.47      54142.41       24.164152      145.46997    
     95000   47.5           4990.2892     -9838.3487      2579.537       1016839.2      53981.085      24.236367      146.25968    
     96000   48             4820.6005     -9972.0372      2491.823       991157.74      54231.039      24.124661      147.65369    
     97000   48.5           4960.8329     -9995.1349      2564.3107      990996.97      54219.74       24.129688      148.74284    
     98000   49             5037.7795     -9834.6697      2604.0852      1012288.7      54086.721      24.189032      149.72799    
     99000   49.5           4919.3856     -9903.7023      2542.8861      1002598.3      54138.161      24.166048      150.87505    
    100000   50             4941.169      -9902.9124      2554.1462      996510.95      54262.597      24.11063       152.1394     
    101000   50.5           4960.2393     -9847.6342      2564.0038      1013947.9      54012.937      24.222075      153.03903    
    102000   51             4971.0187     -10022.953      2569.5758      986858.29      54267.785      24.108325      154.68964    
    103000   51.5           5094.0415     -9948.6319      2633.1677      997311.03      54196.453      24.140056      155.76497    
    104000   52             4959.3005     -9829.987       2563.5186      1016505.2      53984.848      24.234678      156.65017    
    105000   52.5           5075.4887     -9991.1262      2623.5775      994739.1       54175.907      24.149211      158.17258    
    106000   53             5016.6036     -9976.5         2593.1392      989152.32      54299.542      24.094225      159.53782    
    107000   53.5           4941.0312     -9785.0106      2554.075       1018699.7      54017.816      24.219887      160.2268     
    108000   54             5010.5295     -9941.2286      2589.9994      995520.57      54226.355      24.126744      161.94882    
    109000   54.5           4970.8232     -9947.187       2569.4748      993432.36      54258.567      24.112421      163.13308    
    110000   55             5051.228      -9846.5262      2611.037       1007812.3      54155.032      24.15852       164.51969    
Loop time of 182.323 on 8 procs for 100000 steps with 4000 atoms

Performance: 23.694 ns/day, 1.013 hours/ns, 548.478 timesteps/s, 2.194 Matom-step/s
175.8% CPU use with 8 MPI tasks x 1 OpenMP threads

MPI task timing breakdown:
Section |  min time  |  avg time  |  max time  |%varavg| %total
---------------------------------------------------------------
Pair    | 105.07     | 107        | 109        |  10.8 | 58.69
Neigh   | 0.38338    | 0.39002    | 0.39689    |   0.7 |  0.21
Comm    | 36.319     | 38.428     | 40.501     |  19.2 | 21.08
Output  | 0.018114   | 0.01977    | 0.021863   |   0.8 |  0.01
Modify  | 30.569     | 30.693     | 30.827     |   1.5 | 16.83
Other   |            | 5.793      |            |       |  3.18

Nlocal:            500 ave         503 max         493 min
Histogram: 1 0 0 0 0 1 1 1 0 4
Nghost:        2400.62 ave        2421 max        2386 min
Histogram: 1 0 2 2 1 0 0 1 0 1
Neighs:        33269.5 ave       36257 max       30624 min
Histogram: 1 1 1 1 0 0 2 1 0 1

Total # of neighbors = 266156
Ave neighs/atom = 66.539
Neighbor list builds = 934
Dangerous builds = 0
Total wall time: 0:03:22
