LAMMPS (2 Apr 2025)
KOKKOS mode with Kokkos version 4.6.0 is enabled (src/KOKKOS/kokkos.cpp:72)
  will use up to 1 GPU(s) per node
  using 1 OpenMP thread(s) per MPI task
Lattice spacing in x,y,z = 4.08 4.08 4.08
Created orthogonal box = (0 0 0) to (40.8 40.8 40.8)
  2 by 2 by 2 MPI processor grid
Created 4000 atoms
  using lattice units in orthogonal box = (0 0 0) to (40.8 40.8 40.8)
  create_atoms CPU = 0.007 seconds
Reading eam potential file Au_u3.eam with DATE: 2007-06-11
Neighbor list info ...
  update: every = 1 steps, delay = 0 steps, check = yes
  max neighbors/atom: 2000, page size: 100000
  master list distance cutoff = 7.55
  ghost atom cutoff = 7.55
  binsize = 7.55, bins = 6 6 6
  1 neighbor lists, perpetual/occasional/extra = 1 0 0
  (1) pair eam/kk, perpetual
      attributes: half, newton on, kokkos_device
      pair build: half/bin/newton/kk/device
      stencil: half/bin/3d
      bin: kk/device
Setting up Verlet run ...
  Unit style    : metal
  Current step  : 0
  Time step     : 0.0005
WARNING: Fix STORE/ATOM not compatible with sending data in Kokkos communication (src/KOKKOS/comm_kokkos.cpp:766)
WARNING: Fix with atom-based arrays not compatible with sending data in Kokkos communication, switching to classic exchange/border communication (src/KOKKOS/comm_kokkos.cpp:779)
WARNING: Fix STORE/ATOM not compatible with Kokkos sorting on device (src/KOKKOS/atom_kokkos.cpp:212)
WARNING: Fix with atom-based arrays not compatible with Kokkos sorting on device, switching to classic host sorting (src/KOKKOS/atom_kokkos.cpp:218)
Per MPI rank memory allocation (min/avg/max) = 4.315 | 4.315 | 4.315 Mbytes
   Step          Time           Temp          PotEng         KinEng         Press          Volume        Density        c_Msd[4]   
         0   0              12000         -15720          6202.9358      97551.96       67917.312      19.263209      0            
      1000   0.5            12005.692     -8870.7426      6205.8781      1000404        57703.69       22.67282       4.6342262    
      2000   1              11947.08      -8887.4053      6175.5808      993882.56      57804.663      22.633216      9.3470082    
      3000   1.5            12129.226     -8825.3636      6269.7341      1004575.4      57754.421      22.652905      14.192012    
      4000   2              12054.418     -8783.2044      6231.0652      1003852.2      57827.739      22.624184      18.752604    
      5000   2.5            12108.305     -8701.6235      6258.9199      1022067.1      57556.896      22.730645      23.564472    
      6000   3              12033.048     -8925.4271      6220.0188      978625.57      58159.109      22.495279      28.141848    
      7000   3.5            11971.48      -8832.3746      6188.1935      1008770.2      57563.248      22.728137      32.804266    
      8000   4              12067.144     -8885.3862      6237.6435      993061.83      57908.483      22.592638      37.573581    
      9000   4.5            12304.522     -8817.6656      6360.3465      1000164.4      57881.668      22.603105      42.932195    
     10000   5              12039.553     -8895.0961      6223.3811      986569.84      58026.082      22.546851      48.220703    
Loop time of 18.0828 on 8 procs for 10000 steps with 4000 atoms

Performance: 23.890 ns/day, 1.005 hours/ns, 553.012 timesteps/s, 2.212 Matom-step/s
177.2% CPU use with 8 MPI tasks x 1 OpenMP threads

MPI task timing breakdown:
Section |  min time  |  avg time  |  max time  |%varavg| %total
---------------------------------------------------------------
Pair    | 10.314     | 10.484     | 10.649     |   3.1 | 57.98
Neigh   | 0.06489    | 0.065942   | 0.067288   |   0.3 |  0.36
Comm    | 3.665      | 3.8402     | 4.0218     |   5.5 | 21.24
Output  | 0.00095118 | 0.0010993  | 0.001185   |   0.2 |  0.01
Modify  | 3.081      | 3.0946     | 3.1151     |   0.7 | 17.11
Other   |            | 0.5969     |            |       |  3.30

Nlocal:            500 ave         508 max         491 min
Histogram: 1 1 1 0 1 0 0 2 0 2
Nghost:        2328.75 ave        2342 max        2311 min
Histogram: 1 1 0 0 2 1 0 0 0 3
Neighs:        30847.6 ave       34058 max       27907 min
Histogram: 1 0 2 1 0 1 1 1 0 1

Total # of neighbors = 246781
Ave neighs/atom = 61.69525
Neighbor list builds = 154
Dangerous builds = 0
Setting up Verlet run ...
  Unit style    : metal
  Current step  : 10000
  Time step     : 0.0005
WARNING: Fix STORE/ATOM not compatible with Kokkos sorting on device (src/KOKKOS/atom_kokkos.cpp:212)
WARNING: Fix with atom-based arrays not compatible with Kokkos sorting on device, switching to classic host sorting (src/KOKKOS/atom_kokkos.cpp:218)
Per MPI rank memory allocation (min/avg/max) = 5.509 | 5.509 | 5.509 Mbytes
   Step          Time           Temp          PotEng         KinEng         Press          Volume        Density        c_Msd[4]   
     10000   5              12039.553     -8895.0961      6223.3811      986569.84      58026.082      22.546851      48.220703    
     11000   5.5            6350.1494     -9627.7388      3282.4641      1001980.7      54924.054      23.820263      50.196197    
     12000   6              6100.2645     -9707.5834      3153.2958      1000744.8      54738.069      23.901197      51.842011    
     13000   6.5            5851.8279     -9662.9223      3024.8761      1006563.7      54663.821      23.933662      53.491272    
     14000   7              5887.8123     -9810.6024      3043.4768      979581.57      54961.645      23.803971      55.431271    
     15000   7.5            6067.9032     -9644.1681      3136.5679      1010330.1      54643.903      23.942386      56.776596    
     16000   8              6086.8997     -9732.3861      3146.3873      992590.31      54879.478      23.839611      58.541895    
     17000   8.5            6048.1653     -9735.3719      3126.3651      997380.49      54782.135      23.881972      60.21826     
     18000   9              6122.9133     -9662.1747      3165.0032      1008547.9      54677.073      23.927861      61.683196    
     19000   9.5            6017.2905     -9836.6108      3110.4056      975552.44      55027.144      23.775637      63.579207    
     20000   10             6067.3849     -9703.8394      3136.2999      998037.31      54797.789      23.87515       64.915888    
     21000   10.5           6164.138      -9745.1861      3186.3127      995887.68      54795.881      23.875981      66.421473    
     22000   11             5993.2291     -9783.6004      3097.968       984815.97      54929.696      23.817816      68.237121    
     23000   11.5           5868.5186     -9721.9576      3033.5037      1001698.3      54650.606      23.939449      69.805265    
     24000   12             6149.9254     -9698.5938      3178.966       1007477.3      54658.078      23.936177      71.550494    
     25000   12.5           5770.3402     -9876.9652      2982.7542      972358.58      54983.549      23.794488      73.383084    
     26000   13             6027.8731     -9745.1823      3115.8758      1001354.1      54649.531      23.93992       74.661589    
     27000   13.5           6000.1027     -9675.0083      3101.521       1005852.8      54667.4        23.932095      76.079022    
     28000   14             5893.7704     -9720.704       3046.5566      999282.95      54702.968      23.916534      78.099266    
     29000   14.5           5930.9235     -9829.6213      3065.7615      978297.19      54979.513      23.796235      79.687995    
     30000   15             5986.1105     -9628.4504      3094.2883      1011790.2      54623.413      23.951367      80.636454    
     31000   15.5           5961.032      -9711.4718      3081.3249      996805.34      54789.186      23.878898      82.105553    
     32000   16             6030.4151     -9776.778       3117.1898      992092.78      54800.714      23.873875      84.043089    
     33000   16.5           6030.7562     -9668.8751      3117.3662      1008327.8      54643.763      23.942447      85.401493    
     34000   17             6008.3815     -9796.3803      3105.8004      985545.12      54898.116      23.831517      87.448259    
     35000   17.5           6089.0877     -9684.2696      3147.5184      1010927.4      54579.542      23.970619      88.565912    
     36000   18             5943.0388     -9651.3605      3072.0241      1012256.1      54568.746      23.975362      90.077918    
     37000   18.5           5886.9065     -9798.3849      3043.0086      982924.65      54916.073      23.823725      92.089044    
     38000   19             6015.8191     -9630.9982      3109.645       1013075.8      54612.171      23.956297      93.672017    
     39000   19.5           5986.2181     -9821.101       3094.3439      984098.57      54868.864      23.844223      95.551572    
     40000   20             5926.0322     -9756.0537      3063.2331      995113.48      54757.292      23.892807      97.258179    
     41000   20.5           6132.0008     -9687.6674      3169.7007      1006837.6      54664.859      23.933207      98.664593    
     42000   21             6059.9692     -9856.5618      3132.4667      976403.17      54990.869      23.791321      99.950336    
     43000   21.5           6105.4338     -9703.5966      3155.9679      1002655        54710.004      23.913459      101.13658    
     44000   22             6076.3624     -9682.1063      3140.9405      1004132.5      54727.186      23.905951      102.64541    
     45000   22.5           6054.9963     -9965.2483      3129.8961      957122.8       55199.293      23.701488      104.69912    
     46000   23             5985.5318     -9605.3394      3093.9892      1015066.9      54617.278      23.954057      105.72304    
     47000   23.5           5996.8687     -9626.7927      3099.8493      1009589.6      54698.141      23.918645      107.09981    
     48000   24             6094.792      -9850.6292      3150.467       980374.07      54922.732      23.820836      109.39127    
     49000   24.5           6055.4991     -9705.0831      3130.1561      1001370.5      54725.577      23.906653      110.57007    
     50000   25             5915.9908     -9656.26        3058.0426      1004129.9      54733.668      23.903119      112.17262    
     51000   25.5           6131.8377     -9780.9352      3169.6163      993643.4       54775.676      23.884788      114.29705    
     52000   26             6120.6129     -9731.4435      3163.8141      1001445.1      54697.691      23.918841      116.00668    
     53000   26.5           5998.7231     -9572.676       3100.8079      1021023.4      54546.096      23.985317      117.08158    
     54000   27             5932.4585     -9731.7294      3066.555       994466.59      54802.841      23.872949      119.22247    
     55000   27.5           6139.8247     -9796.3134      3173.7449      990463.73      54829.35       23.861406      121.28226    
     56000   28             6052.0634     -9682.2578      3128.3801      1003016.9      54747.687      23.896999      122.52392    
     57000   28.5           6092.146      -9690.1838      3149.0992      1007517.5      54642.036      23.943204      123.94556    
     58000   29             5863.7272     -9892.3585      3031.027       969465.42      55027.075      23.775667      125.92558    
     59000   29.5           6021.12       -9684.3778      3112.3851      1006077        54662.518      23.934232      126.84401    
     60000   30             5944.928      -9713.784       3073.0006      992232.29      54877.045      23.840668      128.68533    
     61000   30.5           6042.633      -9659.9443      3123.5054      1010438.9      54608.673      23.957832      130.69378    
     62000   31             6004.1522     -9744.341       3103.6143      997211.33      54749.978      23.895999      132.11021    
     63000   31.5           5883.1451     -9716.023       3041.0643      993185.17      54837.794      23.857732      133.73295    
     64000   32             6123.8941     -9665.6244      3165.5102      1011370.6      54603.307      23.960186      134.77012    
     65000   32.5           5922.3338     -9689.0557      3061.3214      1005020.7      54656.626      23.936813      136.56343    
     66000   33             5977.156      -9780.2997      3089.6596      988249.73      54861.135      23.847582      138.26424    
     67000   33.5           5950.4568     -9627.3875      3075.8585      1014269.9      54589.217      23.966371      139.69375    
     68000   34             6076.0336     -9701.9355      3140.7706      1002009        54734.151      23.902908      141.599      
     69000   34.5           6045.3181     -9701.3817      3124.8934      1003092.6      54705.619      23.915375      143.68877    
     70000   35             5966.0725     -9692.7948      3083.9304      1008745.1      54580.207      23.970327      145.01367    
     71000   35.5           6099.9931     -9799.875       3153.1555      982815.62      54967.933      23.801248      146.70515    
     72000   36             6094.9611     -9713.9669      3150.5544      1000254.9      54730.362      23.904563      147.60679    
     73000   36.5           6099.9277     -9701.1316      3153.1217      1004803.1      54680.197      23.926494      149.74228    
     74000   37             6051.2051     -9840.7616      3127.9364      977126.11      54990.884      23.791314      151.61057    
     75000   37.5           6085.2498     -9694.7593      3145.5345      1004843.4      54689.705      23.922334      152.99981    
     76000   38             6108.118      -9617.0748      3157.3553      1015598        54606.604      23.958739      154.69208    
     77000   38.5           5973.4091     -9788.3276      3087.7228      980887.79      54995.238      23.789431      157.27502    
     78000   39             5944.9462     -9611.2014      3073.01        1016568.4      54556.746      23.980635      158.50912    
     79000   39.5           5967.166      -9817.9833      3084.4957      981566.27      54928.57       23.818304      160.7667     
     80000   40             5942.9058     -9792.141       3071.9553      990965         54772.741      23.886068      162.00953    
     81000   40.5           5995.0702     -9726.5514      3098.9197      998742.52      54731.289      23.904158      163.50374    
     82000   41             6059.8672     -9710.9566      3132.414       1001320        54730.355      23.904566      165.69233    
     83000   41.5           6016.8906     -9719.2782      3110.1989      1000714.7      54709.782      23.913555      166.56656    
     84000   42             5956.3523     -9597.3331      3078.9059      1020601.9      54494.71       24.007934      167.80971    
     85000   42.5           6024.4374     -9744.1265      3114.0999      992755.64      54837.108      23.858031      169.95507    
     86000   43             6104.3565     -9812.0191      3155.411       982729.15      54924.252      23.820177      171.38624    
     87000   43.5           6047.6074     -9601.7179      3126.0767      1014627        54634.597      23.946464      172.63443    
     88000   44             5970.2706     -9846.1053      3086.1004      979331.62      54908.468      23.827024      174.62925    
     89000   44.5           5910.9335     -9828.2748      3055.4284      984987.55      54831.85       23.860319      176.09867    
     90000   45             5948.3093     -9707.6113      3074.7484      1002814.2      54672.03       23.930068      177.3227     
     91000   45.5           5996.1534     -9671.6772      3099.4796      1002384.9      54758.298      23.892368      179.5289     
     92000   46             5970.5842     -9742.5148      3086.2626      994548.01      54799.088      23.874584      180.87352    
     93000   46.5           5976.0743     -9800.0606      3089.1004      985354.18      54867.181      23.844954      182.50005    
     94000   47             5905.4261     -9706.5621      3052.5816      1002481.3      54677.094      23.927852      183.74798    
     95000   47.5           6044.7723     -9597.5364      3124.6113      1020261.4      54532.98       23.991086      185.32838    
     96000   48             5752.336      -9741.4354      2973.4476      991618.43      54812.548      23.868721      187.50155    
     97000   48.5           6150.123      -9728.274       3179.0682      999304.02      54757.334      23.892789      188.93625    
     98000   49             6010.5788     -9581.2082      3106.9362      1028592.9      54388.721      24.054719      189.3881     
     99000   49.5           5996.4397     -9777.9958      3099.6276      989500.34      54839.959      23.85679       191.80937    
    100000   50             5920.2085     -9627.2022      3060.2228      1006800.7      54724.41       23.907163      193.07278    
    101000   50.5           6070.9823     -9560.9938      3138.1595      1025535.2      54490.735      24.009685      194.37965    
    102000   51             5895.9146     -9736.4799      3047.665       992720.72      54814.601      23.867827      196.94602    
    103000   51.5           6138.5921     -9634.4604      3173.1077      1016863.3      54557.565      23.980275      197.67286    
    104000   52             5947.4221     -9771.8139      3074.2898      991142.82      54801.47       23.873546      199.54481    
    105000   52.5           5954.235      -9730.5124      3077.8115      998343.18      54752.491      23.894902      200.95548    
    106000   53             5965.8738     -9628.8449      3083.8277      1006627.7      54725.632      23.90663       202.51112    
    107000   53.5           6111.0746     -9794.3461      3158.8836      983460.9       54956.984      23.80599       204.95962    
    108000   54             6007.2239     -9670.1268      3105.202       1003805.2      54736.041      23.902083      206.05624    
    109000   54.5           6137.9415     -9603.9671      3172.7714      1017722.2      54585.286      23.968097      207.14092    
    110000   55             6048.3235     -9697.0241      3126.4469      1002076.9      54736.234      23.901999      208.47172    
Loop time of 182.506 on 8 procs for 100000 steps with 4000 atoms

Performance: 23.670 ns/day, 1.014 hours/ns, 547.927 timesteps/s, 2.192 Matom-step/s
176.1% CPU use with 8 MPI tasks x 1 OpenMP threads

MPI task timing breakdown:
Section |  min time  |  avg time  |  max time  |%varavg| %total
---------------------------------------------------------------
Pair    | 105.21     | 106.94     | 108.68     |  10.0 | 58.59
Neigh   | 0.43091    | 0.43638    | 0.44357    |   0.7 |  0.24
Comm    | 36.496     | 38.376     | 40.233     |  18.0 | 21.03
Output  | 0.018794   | 0.020759   | 0.021906   |   0.7 |  0.01
Modify  | 30.697     | 30.831     | 31.047     |   2.0 | 16.89
Other   |            | 5.906      |            |       |  3.24

Nlocal:            500 ave         510 max         493 min
Histogram: 3 0 0 1 1 1 0 0 1 1
Nghost:        2384.12 ave        2394 max        2373 min
Histogram: 1 0 3 0 0 0 1 0 1 2
Neighs:        32865.1 ave       36306 max       29633 min
Histogram: 1 0 2 0 1 1 1 1 0 1

Total # of neighbors = 262921
Ave neighs/atom = 65.73025
Neighbor list builds = 1042
Dangerous builds = 0
Total wall time: 0:03:22
