LAMMPS (2 Apr 2025)
KOKKOS mode with Kokkos version 4.6.0 is enabled (src/KOKKOS/kokkos.cpp:72)
  will use up to 1 GPU(s) per node
  using 1 OpenMP thread(s) per MPI task
Lattice spacing in x,y,z = 4.08 4.08 4.08
Created orthogonal box = (0 0 0) to (40.8 40.8 40.8)
  2 by 2 by 2 MPI processor grid
Created 4000 atoms
  using lattice units in orthogonal box = (0 0 0) to (40.8 40.8 40.8)
  create_atoms CPU = 0.007 seconds
Reading eam potential file Au_u3.eam with DATE: 2007-06-11
Neighbor list info ...
  update: every = 1 steps, delay = 0 steps, check = yes
  max neighbors/atom: 2000, page size: 100000
  master list distance cutoff = 7.55
  ghost atom cutoff = 7.55
  binsize = 7.55, bins = 6 6 6
  1 neighbor lists, perpetual/occasional/extra = 1 0 0
  (1) pair eam/kk, perpetual
      attributes: half, newton on, kokkos_device
      pair build: half/bin/newton/kk/device
      stencil: half/bin/3d
      bin: kk/device
Setting up Verlet run ...
  Unit style    : metal
  Current step  : 0
  Time step     : 0.0005
WARNING: Fix STORE/ATOM not compatible with sending data in Kokkos communication (src/KOKKOS/comm_kokkos.cpp:766)
WARNING: Fix with atom-based arrays not compatible with sending data in Kokkos communication, switching to classic exchange/border communication (src/KOKKOS/comm_kokkos.cpp:779)
WARNING: Fix STORE/ATOM not compatible with Kokkos sorting on device (src/KOKKOS/atom_kokkos.cpp:212)
WARNING: Fix with atom-based arrays not compatible with Kokkos sorting on device, switching to classic host sorting (src/KOKKOS/atom_kokkos.cpp:218)
Per MPI rank memory allocation (min/avg/max) = 4.315 | 4.315 | 4.315 Mbytes
   Step          Time           Temp          PotEng         KinEng         Press          Volume        Density        c_Msd[4]   
         0   0              12000         -15720          6202.9358      97551.96       67917.312      19.263209      0            
      1000   0.5            12005.692     -8870.7426      6205.8781      1000404        57703.69       22.67282       4.6342262    
      2000   1              11947.08      -8887.4053      6175.5808      993882.56      57804.663      22.633216      9.3470082    
      3000   1.5            12129.226     -8825.3636      6269.7341      1004575.4      57754.421      22.652905      14.192012    
      4000   2              12054.418     -8783.2044      6231.0652      1003852.2      57827.739      22.624184      18.752604    
      5000   2.5            12108.304     -8701.6233      6258.9196      1022067.1      57556.896      22.730646      23.564472    
      6000   3              12033.093     -8925.4363      6220.0419      978625.96      58159.095      22.495285      28.141847    
      7000   3.5            11910.523     -8804.503       6156.6843      1010594.7      57565.792      22.727133      32.783607    
      8000   4              12299.914     -8791.7556      6357.9645      1006252.3      57809.202      22.631438      37.144949    
      9000   4.5            11940.624     -8933.8321      6172.2436      981584.33      58055.035      22.535606      42.228366    
     10000   5              12012.203     -8767.566       6209.244       1003614.8      57877.826      22.604605      46.2623      
Loop time of 18.0598 on 8 procs for 10000 steps with 4000 atoms

Performance: 23.921 ns/day, 1.003 hours/ns, 553.717 timesteps/s, 2.215 Matom-step/s
177.3% CPU use with 8 MPI tasks x 1 OpenMP threads

MPI task timing breakdown:
Section |  min time  |  avg time  |  max time  |%varavg| %total
---------------------------------------------------------------
Pair    | 10.27      | 10.459     | 10.634     |   3.3 | 57.91
Neigh   | 0.063943   | 0.065014   | 0.065744   |   0.2 |  0.36
Comm    | 3.6676     | 3.8544     | 4.0593     |   5.8 | 21.34
Output  | 0.00093342 | 0.0010366  | 0.0011198  |   0.2 |  0.01
Modify  | 3.0667     | 3.0838     | 3.1042     |   0.7 | 17.08
Other   |            | 0.5963     |            |       |  3.30

Nlocal:            500 ave         505 max         496 min
Histogram: 1 2 1 0 1 0 0 1 1 1
Nghost:        2327.75 ave        2342 max        2315 min
Histogram: 1 0 1 0 1 4 0 0 0 1
Neighs:          30973 ave       33498 max       28827 min
Histogram: 1 1 1 1 0 2 0 1 0 1

Total # of neighbors = 247784
Ave neighs/atom = 61.946
Neighbor list builds = 153
Dangerous builds = 0
Setting up Verlet run ...
  Unit style    : metal
  Current step  : 10000
  Time step     : 0.0005
WARNING: Fix STORE/ATOM not compatible with Kokkos sorting on device (src/KOKKOS/atom_kokkos.cpp:212)
WARNING: Fix with atom-based arrays not compatible with Kokkos sorting on device, switching to classic host sorting (src/KOKKOS/atom_kokkos.cpp:218)
Per MPI rank memory allocation (min/avg/max) = 5.509 | 5.509 | 5.509 Mbytes
   Step          Time           Temp          PotEng         KinEng         Press          Volume        Density        c_Msd[4]   
     10000   5              12012.203     -8767.566       6209.244       1003614.8      57877.826      22.604605      46.2623      
     11000   5.5            7245.8051     -9419.1835      3745.4387      1004216.1      55443.269      23.597191      49.107327    
     12000   6              6985.5769     -9534.5068      3610.9238      998435.49      55313.065      23.652737      50.983105    
     13000   6.5            6903.9905     -9446.1951      3568.7508      1012331.8      55133.249      23.72988       53.034036    
     14000   7              6911.9489     -9562.9215      3572.8646      994188.28      55321.12       23.649293      55.591355    
     15000   7.5            6971.8154     -9585.086       3603.8103      993110.06      55318.75       23.650307      57.667322    
     16000   8              7158.2129     -9470.6611      3700.1613      1006838.1      55272.197      23.670226      59.90153     
     17000   8.5            6916.7734     -9519.7429      3575.3585      1004046.7      55188.823      23.705985      61.7868      
     18000   9              7040.0079     -9627.8107      3639.0598      985270.23      55427.889      23.603739      64.110112    
     19000   9.5            7055.8741     -9520.9035      3647.2612      997795.59      55344.934      23.639118      66.08773     
     20000   10             7018.1428     -9474.9515      3627.7575      1008620.6      55199.903      23.701227      68.364464    
     21000   10.5           7028.2818     -9591.8806      3632.9984      982466.22      55544.166      23.554326      70.495392    
     22000   11             7062.6218     -9520.7541      3650.7492      998286.01      55342.639      23.640098      72.709553    
     23000   11.5           7001.4705     -9571.6307      3619.1393      992752.9       55359.354      23.63296       74.634848    
     24000   12             7076.8699     -9425.9707      3658.1142      1019959.2      55050.391      23.765597      76.798799    
     25000   12.5           6718.5555     -9473.9113      3472.8974      1001758.4      55278.943      23.667338      78.819575    
     26000   13             7050.8873     -9473.4958      3644.6835      1008540.1      55215.796      23.694404      81.169421    
     27000   13.5           7023.5142     -9544.0707      3630.534       995611.27      55333.039      23.644199      83.241765    
     28000   14             7053.9238     -9492.8509      3646.2531      1008782.5      55172.51       23.712994      84.510617    
     29000   14.5           6963.2887     -9479.5533      3599.4028      1002458.6      55295.476      23.660261      86.985635    
     30000   15             6818.6978     -9679.873       3524.6621      963320.15      55763.69       23.4616        89.259833    
     31000   15.5           7104.8868     -9521.9245      3672.5964      998503.94      55349.832      23.637026      90.869727    
     32000   16             6864.1979     -9560.6999      3548.1816      988919.26      55437.865      23.599491      93.007847    
     33000   16.5           7190.9802     -9484.3665      3717.099       1012109.3      55128.163      23.73207       94.819622    
     34000   17             7055.1838     -9584.0226      3646.9044      989654.54      55397.701      23.616601      97.368883    
     35000   17.5           7112.2314     -9546.0631      3676.3929      996889.71      55348.24       23.637706      98.844593    
     36000   18             6870.7451     -9518.9874      3551.5659      1002151.7      55219.171      23.692956      101.32556    
     37000   18.5           6838.2111     -9576.4776      3534.7487      991645.35      55336.304      23.642804      103.51314    
     38000   19             7027.7537     -9476.8877      3632.7255      1009944.7      55162.864      23.71714       105.18084    
     39000   19.5           6955.9321     -9613.3354      3595.6         985704.4       55427.233      23.604018      107.50436    
     40000   20             6833.7829     -9494.7665      3532.4598      1010748.8      55070.424      23.756952      109.10956    
     41000   20.5           7155.293      -9529.8557      3698.652       998549.29      55341.987      23.640376      111.29904    
     42000   21             7051.3794     -9558.983       3644.9378      992074.24      55403.968      23.61393       113.51311    
     43000   21.5           7039.9334     -9629.6111      3639.0212      992642.09      55242.795      23.682824      115.33608    
     44000   22             7149.3958     -9507.818       3695.6036      1008356.3      55164.497      23.716438      117.34988    
     45000   22.5           7036.5614     -9519.1441      3637.2782      999275.35      55298.787      23.658844      119.70391    
     46000   23             7066.6314     -9438.1122      3652.8218      1011360.5      55203.714      23.69959       121.66531    
     47000   23.5           7089.4787     -9508.4093      3664.6318      994750.23      55436.44       23.600098      124.18912    
     48000   24             7038.1051     -9620.8036      3638.0762      987246.15      55402.879      23.614394      126.17586    
     49000   24.5           7105.9228     -9421.4044      3673.1319      1015223.3      55162.661      23.717228      128.15913    
     50000   25             6906.313      -9599.2157      3569.9514      982624.91      55503.932      23.5714        130.71778    
     51000   25.5           6924.7602     -9505.6824      3579.487       1004292.2      55219.439      23.692841      132.095      
     52000   26             7062.4531     -9486.9506      3650.662       1006091.7      55234.73       23.686282      134.58896    
     53000   26.5           7106.6054     -9654.8459      3673.4848      974321.94      55626.889      23.519299      136.67729    
     54000   27             7002.3626     -9486.9039      3619.6005      1004264.6      55261.947      23.674617      138.45958    
     55000   27.5           7084.6005     -9589.9963      3662.1102      990003.63      55411.038      23.610917      140.84124    
     56000   28             7022.3152     -9610.8055      3629.9142      985730.67      55431.773      23.602085      142.86261    
     57000   28.5           7023.6697     -9539.0634      3630.6144      996923.05      55333.763      23.64389       144.75526    
     58000   29             6980.0294     -9440.6733      3608.0562      1014181.5      55131.83       23.730491      146.53633    
     59000   29.5           6835.7554     -9614.9527      3533.4793      984724.74      55416.16       23.608735      148.84851    
     60000   30             7133.1218     -9552.2314      3687.1914      996225.16      55340.537      23.640996      150.49831    
     61000   30.5           6942.4454     -9485.0768      3588.6286      1006990.9      55181.617      23.709081      152.82628    
     62000   31             6989.8612     -9591.234       3613.1384      990087.59      55379.409      23.624402      155.54863    
     63000   31.5           6900.2708     -9543.464       3566.8281      995229.29      55323.213      23.648399      157.6065     
     64000   32             7060.2601     -9413.2193      3649.5284      1014836.4      55184.524      23.707832      159.47161    
     65000   32.5           7077.8019     -9535.5177      3658.5959      998155.93      55330.443      23.645309      161.67766    
     66000   33             7029.143      -9515.4905      3633.4436      1001384.3      55291.26       23.662065      163.639      
     67000   33.5           7016.3247     -9536.9077      3626.8177      1001521.2      55222.101      23.691699      165.75093    
     68000   34             7097.2734     -9496.4206      3668.661       1006661.5      55218.82       23.693107      168.07179    
     69000   34.5           6930.8986     -9638.1875      3582.6599      991407.99      55245.37       23.68172       170.94894    
     70000   35             6933.6047     -9353.5987      3584.0588      1031716.3      54913.296      23.82493       172.79767    
     71000   35.5           7084.422      -9530.6305      3662.0179      1001928.2      55243.26       23.682625      175.63205    
     72000   36             6963.1053     -9685.8667      3599.308       973159.17      55574.948      23.54128       178.43773    
     73000   36.5           7084.6571     -9433.7696      3662.1395      1014027.5      55163.452      23.716888      179.79313    
     74000   37             6959.8371     -9645.2497      3597.6186      974087.15      55632.66       23.516859      182.61366    
     75000   37.5           7107.2149     -9549.1328      3673.7999      999069.19      55276.705      23.668296      183.98098    
     76000   38             7128.7741     -9385.0207      3684.944       1021614.5      55117.958      23.736464      187.07416    
     77000   38.5           6977.3641     -9554.9889      3606.6785      989381.15      55446.622      23.595764      190.44518    
     78000   39             6933.0632     -9459.9555      3583.7789      1006491.2      55262.592      23.67434       192.70008    
     79000   39.5           7182.9167     -9512.0906      3712.9309      1007605.2      55207.089      23.698141      195.19329    
     80000   40             6846.174      -9558.2265      3538.8648      993001.85      55364.349      23.630828      197.80777    
     81000   40.5           6956.6565     -9702.9427      3595.9745      973171.74      55537.23       23.557268      200.31324    
     82000   41             7053.0019     -9494.3198      3645.7765      1008225.6      55180.494      23.709563      201.83298    
     83000   41.5           6992.7538     -9555.6395      3614.6336      996786.45      55310.445      23.653858      204.18222    
     84000   42             7027.8343     -9682.6258      3632.7671      978315.77      55456.813      23.591428      206.33126    
     85000   42.5           7084.459      -9536.2745      3662.037       998589.05      55317.821      23.650704      208.26322    
     86000   43             7142.007      -9475.0949      3691.7843      1013151.7      55125.883      23.733051      209.78269    
     87000   43.5           7032.6427     -9592.7134      3635.2526      985234.52      55472.586      23.58472       212.82667    
     88000   44             6971.718      -9407.5452      3603.76        1022558.9      55016.476      23.780247      213.79857    
     89000   44.5           7083.3345     -9664.6378      3661.4558      983328.7       55418.983      23.607532      217.03762    
     90000   45             7098.3219     -9498.8375      3669.203       1004905.6      55272.287      23.670188      219.56645    
     91000   45.5           6995.0069     -9483.9476      3615.7983      1001369.6      55347.472      23.638033      221.85544    
     92000   46             6934.3092     -9529.2429      3584.4229      1000715        55266.475      23.672677      223.96238    
     93000   46.5           6982.4341     -9442.1674      3609.2992      1016620.6      55074.697      23.755109      225.98077    
     94000   47             6917.0274     -9478.248       3575.4898      1001984.5      55320.323      23.649634      228.50561    
     95000   47.5           7072.1502     -9598.7749      3655.6745      995645.27      55248.562      23.680352      229.91516    
     96000   48             7011.9889     -9547.4036      3624.5765      1001364.4      55218.681      23.693166      232.28401    
     97000   48.5           7029.1404     -9688.2009      3633.4423      972005.64      55598.747      23.531203      234.68892    
     98000   49             7146.7381     -9451.698       3694.2298      1015178.3      55134.266      23.729443      235.59654    
     99000   49.5           6969.9056     -9571.6758      3602.8231      997638.18      55231.672      23.687593      238.24931    
    100000   50             6837.2008     -9491.6487      3534.2265      999725.55      55314.123      23.652285      240.31641    
    101000   50.5           7020.7741     -9311.6942      3629.1176      1032767.9      54984.631      23.79402       241.21714    
    102000   51             6755.572      -9579.8397      3492.0316      988611.01      55383.002      23.622869      244.62775    
    103000   51.5           7089.3203     -9491.967       3664.5499      999473.03      55366.915      23.629733      246.19606    
    104000   52             7118.1539     -9353.0386      3679.4543      1031222        54961.598      23.803991      247.41741    
    105000   52.5           6905.9693     -9629.0807      3569.7737      988788.37      55327.254      23.646672      249.91729    
    106000   53             6976.1073     -9594.8867      3606.0288      991933.24      55324.013      23.648057      251.89059    
    107000   53.5           7044.8269     -9420.5323      3641.5508      1015974.1      55122.345      23.734575      253.78276    
    108000   54             7052.3377     -9610.4931      3645.4332      991576.84      55320.555      23.649535      255.98153    
    109000   54.5           6883.6505     -9512.6086      3558.2369      996041.35      55370.619      23.628152      258.26707    
    110000   55             7059.4306     -9478.1821      3649.0996      1010799.1      55157.831      23.719305      260.47453    
Loop time of 181.882 on 8 procs for 100000 steps with 4000 atoms

Performance: 23.752 ns/day, 1.010 hours/ns, 549.808 timesteps/s, 2.199 Matom-step/s
176.3% CPU use with 8 MPI tasks x 1 OpenMP threads

MPI task timing breakdown:
Section |  min time  |  avg time  |  max time  |%varavg| %total
---------------------------------------------------------------
Pair    | 104.46     | 106.36     | 108.11     |  10.5 | 58.48
Neigh   | 0.47121    | 0.4757     | 0.48108    |   0.6 |  0.26
Comm    | 36.563     | 38.452     | 40.533     |  18.9 | 21.14
Output  | 0.017546   | 0.019415   | 0.022326   |   0.9 |  0.01
Modify  | 30.53      | 30.687     | 30.872     |   2.1 | 16.87
Other   |            | 5.888      |            |       |  3.24

Nlocal:            500 ave         507 max         494 min
Histogram: 2 0 1 2 0 0 0 0 1 2
Nghost:        2391.38 ave        2399 max        2387 min
Histogram: 1 2 2 0 1 0 1 0 0 1
Neighs:        32589.6 ave       35255 max       30176 min
Histogram: 1 0 2 1 0 1 1 1 0 1

Total # of neighbors = 260717
Ave neighs/atom = 65.17925
Neighbor list builds = 1140
Dangerous builds = 0
Total wall time: 0:03:21
