LAMMPS (2 Apr 2025)
KOKKOS mode with Kokkos version 4.6.0 is enabled (src/KOKKOS/kokkos.cpp:72)
  will use up to 1 GPU(s) per node
  using 1 OpenMP thread(s) per MPI task
Lattice spacing in x,y,z = 4.08 4.08 4.08
Created orthogonal box = (0 0 0) to (40.8 40.8 40.8)
  2 by 2 by 2 MPI processor grid
Created 4000 atoms
  using lattice units in orthogonal box = (0 0 0) to (40.8 40.8 40.8)
  create_atoms CPU = 0.007 seconds
Reading eam potential file Au_u3.eam with DATE: 2007-06-11
Neighbor list info ...
  update: every = 1 steps, delay = 0 steps, check = yes
  max neighbors/atom: 2000, page size: 100000
  master list distance cutoff = 7.55
  ghost atom cutoff = 7.55
  binsize = 7.55, bins = 6 6 6
  1 neighbor lists, perpetual/occasional/extra = 1 0 0
  (1) pair eam/kk, perpetual
      attributes: half, newton on, kokkos_device
      pair build: half/bin/newton/kk/device
      stencil: half/bin/3d
      bin: kk/device
Setting up Verlet run ...
  Unit style    : metal
  Current step  : 0
  Time step     : 0.0005
WARNING: Fix STORE/ATOM not compatible with sending data in Kokkos communication (src/KOKKOS/comm_kokkos.cpp:766)
WARNING: Fix with atom-based arrays not compatible with sending data in Kokkos communication, switching to classic exchange/border communication (src/KOKKOS/comm_kokkos.cpp:779)
WARNING: Fix STORE/ATOM not compatible with Kokkos sorting on device (src/KOKKOS/atom_kokkos.cpp:212)
WARNING: Fix with atom-based arrays not compatible with Kokkos sorting on device, switching to classic host sorting (src/KOKKOS/atom_kokkos.cpp:218)
Per MPI rank memory allocation (min/avg/max) = 4.315 | 4.315 | 4.315 Mbytes
   Step          Time           Temp          PotEng         KinEng         Press          Volume        Density        c_Msd[4]   
         0   0              12000         -15720          6202.9358      97551.96       67917.312      19.263209      0            
      1000   0.5            12005.692     -8870.7426      6205.8781      1000404        57703.69       22.67282       4.6342262    
      2000   1              11947.08      -8887.4053      6175.5808      993882.56      57804.663      22.633216      9.3470082    
      3000   1.5            12129.226     -8825.3636      6269.7341      1004575.4      57754.421      22.652905      14.192012    
      4000   2              12054.418     -8783.2044      6231.0652      1003852.2      57827.739      22.624184      18.752604    
      5000   2.5            12108.304     -8701.6233      6258.9195      1022067.1      57556.896      22.730645      23.564472    
      6000   3              12033.076     -8925.4343      6220.0334      978625.04      58159.112      22.495278      28.141845    
      7000   3.5            11970.878     -8852.2129      6187.8822      1005813        57596.036      22.715199      32.814592    
      8000   4              12104.14      -8623.1471      6256.7672      1026003.1      57624.545      22.703961      37.621       
      9000   4.5            12115.886     -8805.9836      6262.8389      999624.81      57880.582      22.603529      42.434321    
     10000   5              12038.786     -8888.205       6222.9848      984449.51      58066.142      22.531296      47.643708    
Loop time of 18.117 on 8 procs for 10000 steps with 4000 atoms

Performance: 23.845 ns/day, 1.006 hours/ns, 551.969 timesteps/s, 2.208 Matom-step/s
177.3% CPU use with 8 MPI tasks x 1 OpenMP threads

MPI task timing breakdown:
Section |  min time  |  avg time  |  max time  |%varavg| %total
---------------------------------------------------------------
Pair    | 10.291     | 10.483     | 10.674     |   3.4 | 57.86
Neigh   | 0.064255   | 0.065127   | 0.065952   |   0.2 |  0.36
Comm    | 3.6693     | 3.8743     | 4.0788     |   6.0 | 21.38
Output  | 0.00094472 | 0.00098957 | 0.0010464  |   0.0 |  0.01
Modify  | 3.0766     | 3.0969     | 3.111      |   0.7 | 17.09
Other   |            | 0.5972     |            |       |  3.30

Nlocal:            500 ave         505 max         495 min
Histogram: 1 0 2 1 0 0 0 1 2 1
Nghost:        2324.25 ave        2339 max        2311 min
Histogram: 1 1 1 0 2 0 1 0 0 2
Neighs:        30936.9 ave       33883 max       28329 min
Histogram: 1 1 1 1 0 1 2 0 0 1

Total # of neighbors = 247495
Ave neighs/atom = 61.87375
Neighbor list builds = 153
Dangerous builds = 0
Setting up Verlet run ...
  Unit style    : metal
  Current step  : 10000
  Time step     : 0.0005
WARNING: Fix STORE/ATOM not compatible with Kokkos sorting on device (src/KOKKOS/atom_kokkos.cpp:212)
WARNING: Fix with atom-based arrays not compatible with Kokkos sorting on device, switching to classic host sorting (src/KOKKOS/atom_kokkos.cpp:218)
Per MPI rank memory allocation (min/avg/max) = 5.509 | 5.509 | 5.509 Mbytes
   Step          Time           Temp          PotEng         KinEng         Press          Volume        Density        c_Msd[4]   
     10000   5              12038.786     -8888.205       6222.9848      984449.51      58066.142      22.531296      47.643708    
     11000   5.5            8306.4621     -9301.2198      4293.7043      1000335.8      55994.209      23.365013      50.571951    
     12000   6              7899.2433     -9378.8645      4083.2083      996251.54      55835.718      23.431335      53.466787    
     13000   6.5            7994.5305     -9292.5357      4132.4633      1012562.1      55647.403      23.510628      56.089753    
     14000   7              8012.3177     -9448.2477      4141.6577      985692.62      55948.353      23.384163      58.598697    
     15000   7.5            7915.4501     -9330.6311      4091.5858      1000417.7      55807.275      23.443277      60.966832    
     16000   8              8082.2816     -9364.0728      4177.8229      999248.32      55858.063      23.421962      63.552571    
     17000   8.5            8081.9041     -9270.9735      4177.6277      1011508.7      55758.954      23.463593      66.806981    
     18000   9              7959.3452     -9302.2456      4114.2756      1004859.3      55795.66       23.448157      69.565783    
     19000   9.5            8076.1631     -9348.1002      4174.6601      1000886.1      55835.633      23.431371      72.108475    
     20000   10             7963.9767     -9473.7596      4116.6697      971443.95      56224.306      23.269392      75.170621    
     21000   10.5           7990.8778     -9240.5666      4130.5752      1016813.2      55659.965      23.505322      77.138256    
     22000   11             7916.0831     -9302.8048      4091.9129      1003577.9      55809.507      23.442339      79.690605    
     23000   11.5           7851.9923     -9312.94        4058.7837      1000981.9      55857.597      23.422157      82.227111    
     24000   12             7843.8696     -9204.2827      4054.585       1018792.9      55651.111      23.509062      84.499371    
     25000   12.5           7852.7964     -9356.1075      4059.1993      998824.35      55803.102      23.44503       87.109843    
     26000   13             7781.9492     -9311.6505      4022.5776      1003415.5      55775.551      23.456611      89.584796    
     27000   13.5           8056.0059     -9282.0347      4164.2407      1013885.9      55677.684      23.497842      91.967293    
     28000   14             7950.0142     -9397.5695      4109.4524      989149.59      55952.497      23.382431      95.133609    
     29000   14.5           7866.3256     -9241.8932      4066.1928      1015143.5      55658.841      23.505797      97.810022    
     30000   15             7863.1133     -9394.6892      4064.5323      986973.65      56015.843      23.355989      100.71801    
     31000   15.5           8055.2285     -9291.4892      4163.8388      1011322.7      55686.141      23.494273      103.07173    
     32000   16             7927.0772     -9347.4812      4097.5959      998395.89      55831.507      23.433102      105.94241    
     33000   16.5           8064.1562     -9424.2907      4168.4536      989395.63      55937.699      23.388617      108.53044    
     34000   17             8048.2652     -9367.8015      4160.2394      993873         55932.185      23.390923      111.14236    
     35000   17.5           8138.2949     -9300.0954      4206.7767      1011101.2      55693.193      23.491298      113.4829     
     36000   18             8088.4508     -9529.4108      4181.0118      975183.15      56046.736      23.343115      117.21202    
     37000   18.5           8040.7576     -9486.268       4156.3586      989649.12      55803.959      23.44467       118.81788    
     38000   19             7870.8206     -9388.7252      4068.5162      998766.04      55770.719      23.458643      121.2803     
     39000   19.5           8056.7403     -9255.0086      4164.6203      1016483.6      55662.702      23.504166      123.86475    
     40000   20             8043.7659     -9400.9869      4157.9136      989388.97      55957.572      23.38031       126.73515    
     41000   20.5           8015.3833     -9339.3665      4143.2424      997295.68      55912.024      23.399357      128.90795    
     42000   21             8167.5084     -9408.2661      4221.8776      991497.38      55955.39       23.381222      131.53083    
     43000   21.5           8151.9299     -9398.834       4213.8248      996596.68      55852.977      23.424095      134.37697    
     44000   22             7973.9079     -9399.0776      4121.8033      994571         55839.404      23.429788      137.52839    
     45000   22.5           7954.0172     -9467.2101      4111.5215      981346.06      56014.48       23.356557      140.50895    
     46000   23             8132.592      -9333.0499      4203.8289      1002448.9      55825.024      23.435823      143.19898    
     47000   23.5           8103.0697     -9355.7034      4188.5685      1002826.8      55776.24       23.456321      145.7294     
     48000   24             8047.9424     -9437.7968      4160.0725      988417.96      55926.798      23.393176      148.42923    
     49000   24.5           7971.8438     -9260.1905      4120.7363      1014419.9      55688.024      23.493479      150.87536    
     50000   25             8072.4999     -9359.0986      4172.7666      1006095.5      55707.247      23.485372      153.86629    
     51000   25.5           8039.8833     -9368.8394      4155.9067      1002383.3      55754.536      23.465452      156.20148    
     52000   26             8015.8735     -9315.7219      4143.4958      1005876.4      55772.585      23.457858      158.54646    
     53000   26.5           7968.9342     -9444.4983      4119.2323      979051.84      56119.727      23.312754      160.97964    
     54000   27             7808.4215     -9377.6208      4036.2615      995451.38      55832.002      23.432895      163.42661    
     55000   27.5           8001.3639     -9378.0315      4135.9956      994570.98      55907.923      23.401073      166.5986     
     56000   28             8070.6328     -9290.1479      4171.8014      1018037.4      55547.12       23.553074      167.98745    
     57000   28.5           7988.463      -9383.1593      4129.327       995688.79      55870.925      23.41657       171.05392    
     58000   29             8093.8501     -9370.7629      4183.8028      998809.54      55833.103      23.432432      173.77844    
     59000   29.5           7920.1842     -9382.1218      4094.0329      1003151.3      55679.202      23.497201      175.72242    
     60000   30             7985.8307     -9396.4752      4127.9663      996499.57      55813.247      23.440768      178.55421    
     61000   30.5           7976.8152     -9150.1142      4123.3061      1024883.5      55682.562      23.495783      180.90751    
     62000   31             8001.4847     -9346.4631      4136.058       990558.97      56040.824      23.345578      184.9762     
     63000   31.5           8169.6925     -9387.3474      4223.0065      999036.27      55822.512      23.436878      187.26136    
     64000   32             8094.6631     -9237.2351      4184.223       1019488.8      55628.398      23.518661      189.37344    
     65000   32.5           8145.9005     -9394.1543      4210.7082      995461.23      55863.711      23.419594      192.5628     
     66000   33             7976.3786     -9446.2889      4123.0804      986859.97      55922.472      23.394985      195.87707    
     67000   33.5           7902.4561     -9416.6148      4084.869       985176.64      56011.659      23.357733      198.14831    
     68000   34             7981.1582     -9386.4949      4125.551       999029.21      55787.067      23.451769      200.96721    
     69000   34.5           8039.848      -9308.3454      4155.8884      1017269.7      55545.909      23.553587      202.54452    
     70000   35             7905.7672     -9375.5108      4086.5806      994036.86      55897.578      23.405404      206.14222    
     71000   35.5           8265.0731     -9352.0716      4272.3098      1003068.1      55810.392      23.441968      208.69585    
     72000   36             7970.9627     -9221.3683      4120.2809      1022163.1      55573.345      23.541959      210.37935    
     73000   36.5           7960.533      -9473.7996      4114.8896      984569.86      55944.556      23.38575       215.15654    
     74000   37             7900.4259     -9445.135       4083.8196      989393.13      55877.901      23.413646      217.66658    
     75000   37.5           8005.429      -9292.0515      4138.0969      1013635.9      55615.778      23.523997      218.87816    
     76000   38             8114.0905     -9358.5761      4194.2652      1001693.2      55804.861      23.444291      222.05881    
     77000   38.5           7916.8661     -9466.6715      4092.3177      981675.14      55994.642      23.364832      225.53406    
     78000   39             7923.4981     -9384.2695      4095.7459      994148.29      55879.843      23.412832      228.07202    
     79000   39.5           7863.1487     -9371.5045      4064.5506      997721.55      55813.268      23.44076       230.33263    
     80000   40             7910.0801     -9409.1827      4088.81        999315.06      55703.036      23.487147      232.55204    
     81000   40.5           8060.12       -9388.616       4166.3673      998832.19      55811.512      23.441497      235.8921     
     82000   41             8134.497      -9364.0013      4204.8136      1002170.5      55780.479      23.454539      238.46235    
     83000   41.5           7975.7401     -9364.1049      4122.7503      1002598.3      55731.52       23.475143      240.77887    
     84000   42             8227.4391     -9454.9864      4252.8564      983528.32      56026.724      23.351453      244.71384    
     85000   42.5           8032.4407     -9389.1462      4152.0595      998015.39      55805.016      23.444226      246.17113    
     86000   43             8139.9888     -9568.9231      4207.6524      972159.35      56081.505      23.328643      250.47267    
     87000   43.5           8152.5906     -9336.0947      4214.1664      1005352.9      55779.874      23.454793      251.9022     
     88000   44             8040.3898     -9422.9827      4156.1685      994925.37      55807.973      23.442984      254.71279    
     89000   44.5           7980.5656     -9359.6664      4125.2447      999846.22      55805.766      23.443911      258.41319    
     90000   45             7986.8307     -9300.1399      4128.4832      1003661.9      55827.438      23.43481       261.34868    
     91000   45.5           7968.8161     -9388.8987      4119.1712      989099.75      55996.735      23.363959      264.20148    
     92000   46             8001.825      -9197.4467      4136.2339      1025231.2      55563.641      23.54607       265.24813    
     93000   46.5           8003.1358     -9509.5186      4136.9115      982410.73      55909.31       23.400493      269.45623    
     94000   47             8022.9592     -9322.4932      4147.1584      1009211.3      55683.488      23.495393      271.57554    
     95000   47.5           7932.9325     -9263.2507      4100.6226      1012191.9      55716.401      23.481513      274.6198     
     96000   48             7935.2706     -9461.17        4101.8312      984790.87      55949.275      23.383778      277.84359    
     97000   48.5           7891.6901     -9471.5217      4079.3039      983121.71      55966.304      23.376663      279.32428    
     98000   49             8010.7573     -9265.5429      4140.8512      1019514.4      55571.61       23.542694      281.52405    
     99000   49.5           8035.5178     -9380.7225      4153.6501      991828.8       55959.998      23.379297      285.4676     
    100000   50             8091.9895     -9285.6211      4182.841       1010867.7      55726.708      23.47717       286.96251    
    101000   50.5           7974.2193     -9327.6159      4121.9642      1005382.6      55760.265      23.463042      289.47996    
    102000   51             8057.1471     -9386.5843      4164.8306      997395.45      55820.544      23.437704      292.56706    
    103000   51.5           8109.3747     -9399.1474      4191.8276      997690.7       55814.934      23.44006       295.09732    
    104000   52             7953.7287     -9434.8495      4111.3724      988135.9       55930.386      23.391675      297.27782    
    105000   52.5           7998.9147     -9367.7095      4134.7296      997675.31      55848.007      23.426179      299.92457    
    106000   53             8127.4734     -9348.5307      4201.183       1004356        55765.283      23.46093       303.21329    
    107000   53.5           8193.9076     -9450.3427      4235.5236      989296.21      55917.867      23.396912      306.36487    
    108000   54             7922.4682     -9438.1241      4095.2135      994811.6       55749.551      23.46755       308.47191    
    109000   54.5           8036.3242     -9436.5353      4154.0669      984848.66      55994.576      23.364859      311.74445    
    110000   55             8038.1861     -9395.584       4155.0294      1005029.3      55641.861      23.51297       312.79632    
Loop time of 182.072 on 8 procs for 100000 steps with 4000 atoms

Performance: 23.727 ns/day, 1.012 hours/ns, 549.233 timesteps/s, 2.197 Matom-step/s
176.5% CPU use with 8 MPI tasks x 1 OpenMP threads

MPI task timing breakdown:
Section |  min time  |  avg time  |  max time  |%varavg| %total
---------------------------------------------------------------
Pair    | 104.36     | 106.16     | 108.03     |  10.3 | 58.31
Neigh   | 0.50441    | 0.51025    | 0.51664    |   0.6 |  0.28
Comm    | 36.633     | 38.646     | 40.604     |  18.5 | 21.23
Output  | 0.018275   | 0.019187   | 0.022042   |   0.8 |  0.01
Modify  | 30.64      | 30.834     | 30.977     |   2.1 | 16.93
Other   |            | 5.9        |            |       |  3.24

Nlocal:            500 ave         513 max         492 min
Histogram: 2 1 1 0 1 1 1 0 0 1
Nghost:        2364.25 ave        2382 max        2345 min
Histogram: 1 2 0 0 0 1 1 1 0 2
Neighs:        32303.9 ave       35450 max       28934 min
Histogram: 1 0 1 1 0 1 3 0 0 1

Total # of neighbors = 258431
Ave neighs/atom = 64.60775
Neighbor list builds = 1226
Dangerous builds = 0
Total wall time: 0:03:21
