LAMMPS (2 Apr 2025)
KOKKOS mode with Kokkos version 4.6.0 is enabled (src/KOKKOS/kokkos.cpp:72)
  will use up to 1 GPU(s) per node
  using 1 OpenMP thread(s) per MPI task
Lattice spacing in x,y,z = 4.08 4.08 4.08
Created orthogonal box = (0 0 0) to (40.8 40.8 40.8)
  2 by 2 by 2 MPI processor grid
Created 4000 atoms
  using lattice units in orthogonal box = (0 0 0) to (40.8 40.8 40.8)
  create_atoms CPU = 0.007 seconds
Reading eam potential file Au_u3.eam with DATE: 2007-06-11
Neighbor list info ...
  update: every = 1 steps, delay = 0 steps, check = yes
  max neighbors/atom: 2000, page size: 100000
  master list distance cutoff = 7.55
  ghost atom cutoff = 7.55
  binsize = 7.55, bins = 6 6 6
  1 neighbor lists, perpetual/occasional/extra = 1 0 0
  (1) pair eam/kk, perpetual
      attributes: half, newton on, kokkos_device
      pair build: half/bin/newton/kk/device
      stencil: half/bin/3d
      bin: kk/device
Setting up Verlet run ...
  Unit style    : metal
  Current step  : 0
  Time step     : 0.0005
WARNING: Fix STORE/ATOM not compatible with sending data in Kokkos communication (src/KOKKOS/comm_kokkos.cpp:766)
WARNING: Fix with atom-based arrays not compatible with sending data in Kokkos communication, switching to classic exchange/border communication (src/KOKKOS/comm_kokkos.cpp:779)
WARNING: Fix STORE/ATOM not compatible with Kokkos sorting on device (src/KOKKOS/atom_kokkos.cpp:212)
WARNING: Fix with atom-based arrays not compatible with Kokkos sorting on device, switching to classic host sorting (src/KOKKOS/atom_kokkos.cpp:218)
Per MPI rank memory allocation (min/avg/max) = 4.315 | 4.315 | 4.315 Mbytes
   Step          Time           Temp          PotEng         KinEng         Press          Volume        Density        c_Msd[4]   
         0   0              12000         -15720          6202.9358      97551.96       67917.312      19.263209      0            
      1000   0.5            12005.692     -8870.7426      6205.8781      1000404        57703.69       22.67282       4.6342262    
      2000   1              11947.08      -8887.4053      6175.5808      993882.56      57804.663      22.633216      9.3470082    
      3000   1.5            12129.226     -8825.3636      6269.7341      1004575.4      57754.421      22.652905      14.192012    
      4000   2              12054.418     -8783.2044      6231.0652      1003852.2      57827.739      22.624184      18.752604    
      5000   2.5            12108.305     -8701.6234      6258.9197      1022067.1      57556.896      22.730646      23.564472    
      6000   3              12033.077     -8925.4366      6220.0336      978625.07      58159.112      22.495278      28.141843    
      7000   3.5            11981.473     -8857.8257      6193.3592      1006379.7      57569.899      22.725512      32.820952    
      8000   4              11822.575     -8775.8452      6111.223       1003593.4      57784.642      22.641057      37.133369    
      9000   4.5            12044.896     -8878.5521      6226.1431      984951.45      58112.823      22.513197      41.769845    
     10000   5              12143.865     -8803.206       6277.3015      1002491.7      57850.489      22.615287      46.667335    
Loop time of 18.0482 on 8 procs for 10000 steps with 4000 atoms

Performance: 23.936 ns/day, 1.003 hours/ns, 554.070 timesteps/s, 2.216 Matom-step/s
177.4% CPU use with 8 MPI tasks x 1 OpenMP threads

MPI task timing breakdown:
Section |  min time  |  avg time  |  max time  |%varavg| %total
---------------------------------------------------------------
Pair    | 10.266     | 10.456     | 10.641     |   3.4 | 57.93
Neigh   | 0.063836   | 0.064851   | 0.065833   |   0.3 |  0.36
Comm    | 3.6489     | 3.8498     | 4.0536     |   6.1 | 21.33
Output  | 0.00096724 | 0.0011788  | 0.0012677  |   0.3 |  0.01
Modify  | 3.0606     | 3.0797     | 3.0948     |   0.7 | 17.06
Other   |            | 0.5965     |            |       |  3.31

Nlocal:            500 ave         510 max         493 min
Histogram: 2 0 2 1 0 0 1 0 1 1
Nghost:         2341.5 ave        2356 max        2331 min
Histogram: 2 1 1 0 1 1 0 0 0 2
Neighs:        31049.4 ave       33011 max       28226 min
Histogram: 1 0 0 1 2 0 1 0 1 2

Total # of neighbors = 248395
Ave neighs/atom = 62.09875
Neighbor list builds = 153
Dangerous builds = 0
Setting up Verlet run ...
  Unit style    : metal
  Current step  : 10000
  Time step     : 0.0005
WARNING: Fix STORE/ATOM not compatible with Kokkos sorting on device (src/KOKKOS/atom_kokkos.cpp:212)
WARNING: Fix with atom-based arrays not compatible with Kokkos sorting on device, switching to classic host sorting (src/KOKKOS/atom_kokkos.cpp:218)
Per MPI rank memory allocation (min/avg/max) = 5.509 | 5.509 | 5.509 Mbytes
   Step          Time           Temp          PotEng         KinEng         Press          Volume        Density        c_Msd[4]   
     10000   5              12143.865     -8803.206       6277.3015      1002491.7      57850.489      22.615287      46.667335    
     11000   5.5            9130.659      -9094.7892      4719.741       1014767.8      56237.66       23.263866      50.272701    
     12000   6              8782.4135     -9170.1594      4539.7289      1000885.7      56346.096      23.219096      54.060526    
     13000   6.5            8835.7472     -9047.2077      4567.2977      1014437.1      56265.451      23.252376      57.377168    
     14000   7              8976.2062     -9188.5626      4639.9026      1004990.1      56241.117      23.262436      60.617597    
     15000   7.5            8928.5289     -9201.2819      4615.2577      999209.97      56338.037      23.222417      64.262664    
     16000   8              9151.9809     -8915.3683      4730.7625      1040760.6      55992.858      23.365576      67.792683    
     17000   8.5            9079.2397     -9249.9585      4693.1618      1002240.8      56213.547      23.273845      71.365567    
     18000   9              8881.049      -9216.4283      4590.7147      993607.98      56425.847      23.186278      74.706221    
     19000   9.5            9359.7085     -9202.8749      4838.1393      1004404.4      56322.874      23.228669      77.630364    
     20000   10             9075.9631     -9288.8902      4691.4681      990909.13      56410.29       23.192673      80.550683    
     21000   10.5           9100.4428     -9108.0238      4704.1219      1008015.8      56354.456      23.215652      84.089737    
     22000   11             9045.7559     -9131.9249      4675.8536      1011710.3      56214.34       23.273517      86.907746    
     23000   11.5           8873.5085     -9209.1438      4586.817       996875.5       56373.358      23.207867      89.790372    
     24000   12             9077.0855     -9152.4642      4692.0483      1011081.7      56195.623      23.281269      92.77809     
     25000   12.5           8874.9241     -9196.8251      4587.5487      1002759.3      56254.281      23.256993      96.215707    
     26000   13             8976.4579     -9348.28        4640.0327      978344.71      56535.161      23.141447      99.806969    
     27000   13.5           9010.8276     -9070.0446      4657.7988      1022087.9      56105.972      23.31847       102.18546    
     28000   14             9147.9033     -9312.4415      4728.6548      984057.32      56511.359      23.151194      105.80326    
     29000   14.5           9150.9732     -9151.268       4730.2416      1005363.8      56334.806      23.223749      108.34524    
     30000   15             8987.953      -9155.9353      4645.9746      1010465.4      56163.037      23.294777      111.16158    
     31000   15.5           8913.5113     -9316.0811      4607.4949      983285.68      56490.945      23.15956       114.6309     
     32000   16             8865.6756     -9281.4085      4582.7681      992235.67      56333.007      23.224491      118.22321    
     33000   16.5           8962.1391     -9125.8803      4632.6311      1011985.7      56208.918      23.275762      121.0474     
     34000   17             9032.8096     -9156.6854      4669.1615      1005303.6      56322.89       23.228663      123.86621    
     35000   17.5           9133.6259     -9265.4888      4721.2746      992799.66      56420.475      23.188486      127.51699    
     36000   18             8874.795      -9225.0848      4587.482       997465.23      56294.677      23.240304      130.39416    
     37000   18.5           8965.0137     -9270.4302      4634.1171      992247.89      56375.938      23.206805      133.63183    
     38000   19             8890.8622     -9111.4252      4595.7873      1016232.5      56117.105      23.313844      136.24547    
     39000   19.5           9125.3138     -9252.5443      4716.978       991615.75      56454.665      23.174443      139.88263    
     40000   20             8820.8206     -9263.4497      4559.582       989701.22      56402.688      23.195799      143.30634    
     41000   20.5           9182.0083     -9157.2376      4746.284       1009258        56259.959      23.254646      146.46891    
     42000   21             8979.3139     -9083.3186      4641.509       1013696.7      56256.923      23.2559        149.24265    
     43000   21.5           9088.5742     -9323.3399      4697.9869      982243.87      56527.177      23.144715      152.87241    
     44000   22             9007.2461     -9120.4841      4655.9475      1015291.4      56182.08       23.286881      156.02023    
     45000   22.5           9069.693      -9219.7933      4688.227       998126.4       56348.137      23.218255      159.74356    
     46000   23             9059.0585     -9129.7966      4682.7299      1005367.7      56346.099      23.219095      163.18696    
     47000   23.5           9269.0871     -9260.8656      4791.296       994383.27      56408.759      23.193303      167.45385    
     48000   24             8920.847      -9226.9295      4611.2868      998282.16      56330.797      23.225402      170.04897    
     49000   24.5           8880.8277     -9183.615       4590.6004      1002079.5      56312.66       23.232883      173.03457    
     50000   25             8855.6317     -9246.0938      4577.5763      992099.09      56383.05       23.203878      176.60259    
     51000   25.5           9001.9902     -9391.5763      4653.2306      984409.41      56321.783      23.229119      179.74849    
     52000   26             9313.1901     -9200.597       4814.0934      1007785.4      56238.811      23.26339       182.77491    
     53000   26.5           9001.2948     -9151.682       4652.8712      1006037.6      56311.661      23.233295      185.79271    
     54000   27             9066.8841     -9209.6773      4686.775       1000492.2      56328.311      23.226427      189.5731     
     55000   27.5           9016.2467     -9124.8267      4660.6         1010942.4      56261.042      23.254198      192.30915    
     56000   28             8978.9496     -9146.4174      4641.3207      1005877.3      56317.199      23.23101       194.98958    
     57000   28.5           9137.1474     -9243.961       4723.0949      997892.57      56359.262      23.213672      198.99258    
     58000   29             8819.3519     -9273.4149      4558.8228      992320.76      56348.107      23.218267      201.879      
     59000   29.5           9006.5113     -9190.9107      4655.5676      1003289.4      56284.59       23.244469      205.01653    
     60000   30             8964.0645     -9200.9178      4633.6264      998492.61      56359.382      23.213622      208.15289    
     61000   30.5           9084.8247     -9129.612       4696.0487      1005465.7      56362.171      23.212474      211.13085    
     62000   31             8967.399      -9267.2478      4635.3501      986282.8       56504.987      23.153804      214.30584    
     63000   31.5           8820.3542     -9119.8668      4559.3409      1006450.2      56298.049      23.238912      216.54982    
     64000   32             9144.7188     -9156.6993      4727.0087      1009780.5      56235.237      23.264869      218.68023    
     65000   32.5           8719.7873     -9218.3782      4507.3568      994802.68      56360.12       23.213318      221.7311     
     66000   33             9051.574      -9197.3027      4678.8611      1000055.4      56352.602      23.216415      224.74552    
     67000   33.5           8918.8387     -9379.3866      4610.2487      975576.8       56539.443      23.139694      228.94303    
     68000   34             8949.0432     -9182.9634      4625.8617      1003093.5      56293.181      23.240922      231.56677    
     69000   34.5           8734.6744     -9314.7659      4515.0521      987357.48      56332.443      23.224723      234.90604    
     70000   35             8881.5629     -9159.3465      4590.9804      1015213        56058.083      23.33839       237.7952     
     71000   35.5           8907.7527     -9334.5834      4604.5182      977435.63      56575.842      23.124807      243.43698    
     72000   36             9079.1714     -9098.2822      4693.1265      1020854.7      56075.731      23.331045      245.17008    
     73000   36.5           8950.724      -9160.2181      4626.7306      1011697.2      56168.786      23.292393      248.87954    
     74000   37             8882.9188     -9245.294       4591.6813      987600.52      56516.052      23.149271      253.06004    
     75000   37.5           8810.9889     -9135.514       4554.4999      1004062.8      56343.466      23.22018       255.42317    
     76000   38             9104.1606     -9164.2259      4706.0437      1007865.7      56257.028      23.255857      258.27989    
     77000   38.5           8839.1862     -9188.8442      4569.0754      1000012.6      56334.032      23.224068      261.5145     
     78000   39             8861.4121     -9184.5308      4580.5642      1002214        56298.574      23.238695      264.51218    
     79000   39.5           8953.488      -9158.3666      4628.1593      1004328.3      56307.857      23.234864      267.63269    
     80000   40             8797.5165     -9181.6724      4547.5359      1002741.1      56274.506      23.248634      271.40222    
     81000   40.5           8845.2201     -9291.864       4572.1944      991845.04      56328.471      23.226361      275.25847    
     82000   41             8851.7813     -9210.3703      4575.586       997486.25      56345.948      23.219157      277.65256    
     83000   41.5           9004.7262     -9091.0859      4654.6449      1017586.2      56170.584      23.291647      280.51711    
     84000   42             8894.0229     -9252.7581      4597.4211      989555.52      56454.965      23.174319      285.5382     
     85000   42.5           8892.2077     -9172.1487      4596.4828      1003322.6      56303.126      23.236817      288.54418    
     86000   43             9178.1128     -9138.659       4744.2704      1016668        56116.431      23.314124      290.51902    
     87000   43.5           8974.0311     -9196.7098      4638.7782      996988.61      56413.782      23.191237      294.91138    
     88000   44             8972.596      -9310.9142      4638.0364      983077.89      56523.308      23.146299      297.5879     
     89000   44.5           9080.7797     -9326.8729      4693.9578      982663.29      56506.567      23.153157      301.70232    
     90000   45             8901.7502     -9012.2677      4601.4155      1027053.9      56102.456      23.319931      303.72671    
     91000   45.5           8970.018      -9172.7973      4636.7038      1001114.3      56377.54       23.206145      307.69534    
     92000   46             9166.3451     -9181.5604      4738.1876      1009027.5      56224.201      23.269435      310.66895    
     93000   46.5           8954.2595     -9180.5835      4628.5581      1005690.7      56253.459      23.257333      313.66794    
     94000   47             8882.7236     -9327.9958      4591.5804      979775.25      56547.628      23.136344      317.71503    
     95000   47.5           9065.5086     -9155.33        4686.064       1006963.4      56280.942      23.245976      320.62053    
     96000   48             8803.6664     -9223.2198      4550.7148      993457.8       56394.188      23.199295      324.98808    
     97000   48.5           9058.4663     -9123.198       4682.4238      1007149        56379.629      23.205286      327.92516    
     98000   49             9137.9256     -9162.3578      4723.4972      1005134.9      56312.191      23.233076      331.33967    
     99000   49.5           8969.4621     -9253.003       4636.4165      990760.44      56442.441      23.179462      334.68054    
    100000   50             9147.9439     -9070.1533      4728.6758      1024031.1      56100.043      23.320934      336.40652    
    101000   50.5           8914.3602     -9206.3936      4607.9337      1000521.6      56287.477      23.243277      341.10621    
    102000   51             9132.5327     -9296.2201      4720.7095      988270.43      56438.353      23.181141      345.28358    
    103000   51.5           9069.5937     -9162.542       4688.1756      1003487.5      56331.799      23.224989      347.90676    
    104000   52             8991.0451     -9293.341       4647.573       984635.96      56504.261      23.154102      352.06657    
    105000   52.5           8912.9451     -9151.6071      4607.2022      1010121.8      56178.883      23.288206      354.42377    
    106000   53             9119.1549     -9202.3082      4713.7944      1008869.3      56147.56       23.301198      357.89819    
    107000   53.5           8860.511      -9313.5069      4580.0984      981698.56      56507.106      23.152936      362.18164    
    108000   54             9090.2015     -9310.4442      4698.828       988094.44      56417.931      23.189532      363.88703    
    109000   54.5           9174.056      -9167.4543      4742.1734      1008348.5      56257.769      23.255551      366.44518    
    110000   55             9218.475      -9148.8603      4765.1341      1012681.2      56219.666      23.271312      369.14181    
Loop time of 181.198 on 8 procs for 100000 steps with 4000 atoms

Performance: 23.841 ns/day, 1.007 hours/ns, 551.884 timesteps/s, 2.208 Matom-step/s
176.7% CPU use with 8 MPI tasks x 1 OpenMP threads

MPI task timing breakdown:
Section |  min time  |  avg time  |  max time  |%varavg| %total
---------------------------------------------------------------
Pair    | 103.73     | 105.59     | 107.48     |  10.8 | 58.27
Neigh   | 0.53506    | 0.54497    | 0.55257    |   0.8 |  0.30
Comm    | 36.421     | 38.467     | 40.459     |  19.1 | 21.23
Output  | 0.017647   | 0.019019   | 0.020551   |   0.6 |  0.01
Modify  | 30.47      | 30.672     | 30.84      |   2.2 | 16.93
Other   |            | 5.903      |            |       |  3.26

Nlocal:            500 ave         510 max         493 min
Histogram: 2 0 1 2 0 1 0 1 0 1
Nghost:         2362.5 ave        2384 max        2351 min
Histogram: 3 1 0 2 0 0 0 1 0 1
Neighs:        31928.4 ave       34942 max       29630 min
Histogram: 2 0 2 0 1 1 0 0 1 1

Total # of neighbors = 255427
Ave neighs/atom = 63.85675
Neighbor list builds = 1313
Dangerous builds = 0
Total wall time: 0:03:20
