LAMMPS (2 Apr 2025)
KOKKOS mode with Kokkos version 4.6.0 is enabled (src/KOKKOS/kokkos.cpp:72)
  will use up to 1 GPU(s) per node
  using 1 OpenMP thread(s) per MPI task
Lattice spacing in x,y,z = 3.615 3.615 3.615
Created orthogonal box = (0 0 0) to (36.15 36.15 36.15)
  2 by 2 by 2 MPI processor grid
Created 4000 atoms
  using lattice units in orthogonal box = (0 0 0) to (36.15 36.15 36.15)
  create_atoms CPU = 0.007 seconds
Reading eam potential file Cu_u3.eam with DATE: 2007-06-11
Neighbor list info ...
  update: every = 1 steps, delay = 0 steps, check = yes
  max neighbors/atom: 2000, page size: 100000
  master list distance cutoff = 6.95
  ghost atom cutoff = 6.95
  binsize = 6.95, bins = 6 6 6
  1 neighbor lists, perpetual/occasional/extra = 1 0 0
  (1) pair eam/kk, perpetual
      attributes: half, newton on, kokkos_device
      pair build: half/bin/newton/kk/device
      stencil: half/bin/3d
      bin: kk/device
Setting up Verlet run ...
  Unit style    : metal
  Current step  : 0
  Time step     : 0.0005
WARNING: Fix STORE/ATOM not compatible with sending data in Kokkos communication (src/KOKKOS/comm_kokkos.cpp:766)
WARNING: Fix with atom-based arrays not compatible with sending data in Kokkos communication, switching to classic exchange/border communication (src/KOKKOS/comm_kokkos.cpp:779)
WARNING: Fix STORE/ATOM not compatible with Kokkos sorting on device (src/KOKKOS/atom_kokkos.cpp:212)
WARNING: Fix with atom-based arrays not compatible with Kokkos sorting on device, switching to classic host sorting (src/KOKKOS/atom_kokkos.cpp:218)
Per MPI rank memory allocation (min/avg/max) = 4.315 | 4.315 | 4.315 Mbytes
   Step          Time           Temp          PotEng         KinEng         Press          Volume        Density        c_Msd[4]   
         0   0              12000         -14160          6202.9358      140246.29      47241.633      8.9351058      0            
      1000   0.5            11863.563     -7545.1953      6132.4101      1000553.4      40468.292      10.430611      7.9707649    
      2000   1              11918.847     -7502.1359      6160.9867      1005824.4      40443.798      10.436928      17.295869    
      3000   1.5            11761.693     -7551.277       6079.7525      994027.89      40509.79       10.419926      26.102305    
      4000   2              12061.15      -7630.1578      6234.545       987139.85      40648.306      10.384418      35.285657    
      5000   2.5            12182.999     -7520.6838      6297.5299      1019570        40253.89       10.486167      43.759463    
      6000   3              12118.871     -7650.3964      6264.3817      988742.49      40592.615      10.398665      52.800177    
      7000   3.5            11806.568     -7585.6911      6102.9486      986023.52      40650.305      10.383907      61.779983    
      8000   4              12238.872     -7499.3751      6326.4113      1015810.2      40327.307      10.467076      71.264653    
      9000   4.5            12330.699     -7613.8632      6373.8779      998830.57      40537.233      10.412871      79.829385    
     10000   5              11801.932     -7592.6146      6100.5524      991685.53      40537.348      10.412842      88.20996     
Loop time of 19.13 on 8 procs for 10000 steps with 4000 atoms

Performance: 22.582 ns/day, 1.063 hours/ns, 522.738 timesteps/s, 2.091 Matom-step/s
171.0% CPU use with 8 MPI tasks x 1 OpenMP threads

MPI task timing breakdown:
Section |  min time  |  avg time  |  max time  |%varavg| %total
---------------------------------------------------------------
Pair    | 11.483     | 11.517     | 11.532     |   0.4 | 60.20
Neigh   | 0.1288     | 0.12978    | 0.13098    |   0.2 |  0.68
Comm    | 3.7624     | 3.784      | 3.8176     |   0.8 | 19.78
Output  | 0.00093939 | 0.0010447  | 0.0010941  |   0.1 |  0.01
Modify  | 3.0787     | 3.0962     | 3.1108     |   0.6 | 16.19
Other   |            | 0.6023     |            |       |  3.15

Nlocal:            500 ave         518 max         493 min
Histogram: 4 1 0 0 2 0 0 0 0 1
Nghost:        2455.75 ave        2466 max        2441 min
Histogram: 1 0 0 2 0 0 1 1 1 2
Neighs:        34466.5 ave       36019 max       33650 min
Histogram: 2 1 1 2 0 0 1 0 0 1

Total # of neighbors = 275732
Ave neighs/atom = 68.933
Neighbor list builds = 264
Dangerous builds = 0
Setting up Verlet run ...
  Unit style    : metal
  Current step  : 10000
  Time step     : 0.0005
WARNING: Fix STORE/ATOM not compatible with Kokkos sorting on device (src/KOKKOS/atom_kokkos.cpp:212)
WARNING: Fix with atom-based arrays not compatible with Kokkos sorting on device, switching to classic host sorting (src/KOKKOS/atom_kokkos.cpp:218)
Per MPI rank memory allocation (min/avg/max) = 5.509 | 5.509 | 5.509 Mbytes
   Step          Time           Temp          PotEng         KinEng         Press          Volume        Density        c_Msd[4]   
     10000   5              11801.932     -7592.6146      6100.5524      991685.53      40537.348      10.412842      88.20996     
     11000   5.5            10073.981     -7769.9184      5207.3549      1010562        39480.564      10.691564      94.187621    
     12000   6              10002.933     -7949.8375      5170.6291      1002608.4      39335.997      10.730858      100.42088    
     13000   6.5            10017.087     -7864.1615      5177.9459      992470.55      39669.418      10.640665      107.29923    
     14000   7              9937.4809     -7883.1164      5136.7964      1010684        39268.868      10.749202      114.11365    
     15000   7.5            10230.581     -7861.4502      5288.3033      1002719.6      39532.22       10.677594      121.54757    
     16000   8              10172.338     -7928.6495      5258.1965      1002540.1      39409.048      10.710967      129.00483    
     17000   8.5            10058.527     -8076.4154      5199.3662      980781.38      39582.405      10.664056      135.82865    
     18000   9              9977.3907     -7913.2506      5157.4262      998541.67      39446.59       10.700773      142.72704    
     19000   9.5            10189.867     -7719.8044      5267.2576      1030005        39250.193      10.754316      148.84724    
     20000   10             10151.269     -7887.0197      5247.3057      1003901.6      39463.4        10.696215      157.18813    
     21000   10.5           10228.733     -7922.9885      5287.348       997474.73      39519.857      10.680934      164.23722    
     22000   11             10054.569     -7990.7182      5197.3208      987137.76      39564.423      10.668903      171.47315    
     23000   11.5           9893.7805     -7897.8208      5114.2072      1007742.1      39308.49       10.738367      177.19332    
     24000   12             10027.959     -7966.2633      5183.5657      984685.65      39651.352      10.645513      185.77312    
     25000   12.5           10093.344     -7955.3927      5217.3637      1002312.4      39321.754      10.734745      191.56216    
     26000   13             9855.9363     -8066.1598      5094.645       978011.33      39586.693      10.662901      198.40614    
     27000   13.5           10184.459     -7916.0923      5264.462       1000812.9      39483.22       10.690845      205.69096    
     28000   14             9919.8206     -7844.9024      5127.6676      1011096.2      39296.273      10.741706      211.11776    
     29000   14.5           10078.134     -8073.5459      5209.5017      973166.24      39719.932      10.627133      220.36682    
     30000   15             9906.3523     -7862.4951      5120.7057      1005475.6      39406.307      10.711712      225.29066    
     31000   15.5           10099.103     -7992.4684      5220.3407      992205.03      39498.121      10.686812      230.63691    
     32000   16             9921.4341     -7858.3039      5128.5016      997986.83      39550.533      10.67265       238.5539     
     33000   16.5           9998.0838     -7951.2563      5168.1227      990903.32      39574.636      10.66615       245.52168    
     34000   17             9917.957      -7857.3883      5126.7042      1009759.9      39327.482      10.733181      251.81498    
     35000   17.5           9928.9382     -7855.2777      5132.3806      994368.22      39601.403      10.65894       259.44306    
     36000   18             9728.5603     -7840.1764      5028.8029      1007357.9      39362.822      10.723545      264.74091    
     37000   18.5           10247.111     -7925.9444      5296.8474      1010955.8      39307.898      10.738529      272.28349    
     38000   19             10026.979     -7946.1501      5183.0591      995092.69      39502.996      10.685493      279.19322    
     39000   19.5           9958.9382     -7754.4841      5147.8879      1013210.5      39441.485      10.702158      287.0201     
     40000   20             9946.053      -7786.1014      5141.2274      1027518.3      39131.053      10.787059      292.70821    
     41000   20.5           9924.4219     -7924.5135      5130.046       989402.49      39603.803      10.658294      300.47062    
     42000   21             10019.228     -7888.2136      5179.0523      1003717.4      39430.104      10.705247      305.94592    
     43000   21.5           9877.6831     -7799.0017      5105.8862      1009513.3      39433.935      10.704207      312.32912    
     44000   22             10149.849     -7811.2537      5246.572       1012154.8      39404.862      10.712104      318.95682    
     45000   22.5           10044.24      -7932.3207      5191.9812      992689.09      39579.172      10.664927      326.55078    
     46000   23             9968.4875     -7872.9563      5152.824       994036.59      39610.7        10.656439      334.04904    
     47000   23.5           10190.71      -7922.2782      5267.6935      999200.59      39501.563      10.685881      340.34309    
     48000   24             10002.218     -7925.8567      5170.2598      1000998.9      39433.446      10.704339      347.59272    
     49000   24.5           9912.238      -7964.6831      5123.748       988334.93      39574.542      10.666175      352.90077    
     50000   25             10145.7       -7969.8477      5244.4273      1000134.7      39368.54       10.721987      358.42076    
     51000   25.5           9851.5216     -7955.0211      5092.3631      995111.26      39436.48       10.703516      365.96477    
     52000   26             10057.823     -8022.1023      5199.0024      975252.18      39766.48       10.614694      373.86415    
     53000   26.5           10060.166     -7839.546       5200.2135      1014543.9      39296.391      10.741673      377.5268     
     54000   27             9972.9554     -7973.2988      5155.1336      985189         39601.776      10.65884       385.81357    
     55000   27.5           10125.249     -7831.5028      5233.8559      1004173.2      39539.059      10.675747      393.4219     
     56000   28             9888.0544     -7905.4472      5111.2473      995206.64      39508.292      10.684061      399.4664     
     57000   28.5           9839.5039     -7961.8111      5086.151       978176.38      39714.876      10.628486      407.16596    
     58000   29             9934.5059     -7871.2203      5135.2585      1007169.2      39366.51       10.72254       413.5311     
     59000   29.5           9859.3334     -7902.3434      5096.401       1001842.5      39394.531      10.714914      420.45813    
     60000   30             10069.085     -7875.2085      5204.8241      1000608.8      39529.346      10.67837       428.16839    
     61000   30.5           10295.467     -7811.6332      5321.8436      1020421.2      39263.406      10.750697      434.44549    
     62000   31             9934.2188     -7843.4927      5135.1102      1005118.2      39439.638      10.702659      441.83631    
     63000   31.5           9704.7177     -7815.1816      5016.4784      1010606        39312.608      10.737242      447.69847    
     64000   32             10080.978     -7959.7325      5210.9718      993940.47      39514.791      10.682304      455.79576    
     65000   32.5           10072.637     -7846.2224      5206.66        1007772.6      39419.053      10.708248      463.04953    
     66000   33             9912.7281     -7926.0574      5124.0014      990388.97      39557.87       10.67067       469.51599    
     67000   33.5           10003.776     -7953.006       5171.0651      991798.29      39513.3        10.682707      476.13765    
     68000   34             9917.0634     -7777.6508      5126.2423      1013796.5      39382.577      10.718166      481.86768    
     69000   34.5           9940.127      -7966.774       5138.1642      990213.69      39537.886      10.676064      488.36345    
     70000   35             9823.1143     -7907.5673      5077.679       1000142.7      39401.383      10.71305       493.64421    
     71000   35.5           10065.597     -7884.9999      5203.0211      1007148.3      39395.403      10.714676      499.72011    
     72000   36             9847.2025     -7801.5199      5090.1304      1013911.5      39318.847      10.735538      505.52406    
     73000   36.5           10205.699     -7887.6166      5275.4414      1001047.5      39499.519      10.686434      513.14114    
     74000   37             10011.799     -8017.8005      5175.212       986546.85      39534.848      10.676884      520.97087    
     75000   37.5           10036.231     -7849.5952      5187.8413      1016563.1      39262.74       10.75088       527.50603    
     76000   38             10010.731     -7950.9167      5174.6601      996040.48      39471.944      10.693899      536.10382    
     77000   38.5           9831.1624     -7922.4784      5081.8392      999637.2       39401.332      10.713064      542.97135    
     78000   39             10067.569     -7759.4091      5204.0403      1023258.6      39291.247      10.74308       549.56269    
     79000   39.5           9823.2081     -7835.514       5077.7274      1000219.1      39502.569      10.685609      558.35427    
     80000   40             10070.741     -7827.1924      5205.6798      1012297.8      39346.105      10.728101      565.52496    
     81000   40.5           9870.2658     -7968.8567      5102.0521      985927.83      39596.093      10.66037       574.23548    
     82000   41             10032.47      -7869.4063      5185.8972      1010023.1      39330.63       10.732322      575.47026    
     83000   41.5           10108.509     -7907.1825      5225.2027      1004729.5      39401.529      10.71301       581.90475    
     84000   42             10072.756     -7912.2436      5206.7218      996203.01      39538.381      10.67593       590.83497    
     85000   42.5           9972.0671     -7965.7162      5154.6744      983049.04      39656.365      10.644167      599.71555    
     86000   43             10077.835     -7780.2583      5209.347       1019491.9      39344.669      10.728493      604.43629    
     87000   43.5           10048.777     -7888.9623      5194.3265      1000689.5      39488.553      10.689401      614.44988    
     88000   44             10015.324     -7991.3403      5177.0341      1007289        39198.602      10.768471      618.60082    
     89000   44.5           9770.1796     -7961.8562      5050.3164      978863.98      39708.308      10.630244      632.22435    
     90000   45             9974.8489     -7864.0871      5156.1123      1006295.2      39399.873      10.713461      636.55228    
     91000   45.5           10208.815     -7876.0503      5277.0518      1008876.7      39349.528      10.727168      641.56635    
     92000   46             10235.537     -7888.6534      5290.8647      1009045.2      39402.961      10.712621      649.35555    
     93000   46.5           9877.0463     -7936.7141      5105.557       1000810.3      39342.105      10.729192      655.56589    
     94000   47             10058.559     -7832.9795      5199.3832      1012923.1      39362.423      10.723654      663.91763    
     95000   47.5           9920.2708     -7847.3745      5127.9003      1006320        39418.68       10.708349      671.38886    
     96000   48             9841.3401     -8033.287       5087.1001      989553.57      39431.67       10.704822      679.8202     
     97000   48.5           10025.167     -7810.1459      5182.1222      1014623.6      39324.458      10.734007      682.66805    
     98000   49             10015.655     -7787.4818      5177.2054      1012216.5      39421.635      10.707547      689.3505     
     99000   49.5           9955.7626     -8003.4071      5146.2464      984790.86      39561.09       10.669802      697.22005    
    100000   50             9962.4198     -7838.5002      5149.6876      1007329.4      39392.839      10.715374      701.6262     
    101000   50.5           10052.507     -7902.7193      5196.2545      999411.71      39475.644      10.692897      709.34022    
    102000   51             9990.9844     -7952.02        5164.453       1002935.8      39341.988      10.729224      716.11043    
    103000   51.5           10173.514     -7814.0061      5258.8043      1015364.7      39365.297      10.722871      723.18453    
    104000   52             10171.631     -7984.3539      5257.8311      979543.68      39757.107      10.617196      734.92729    
    105000   52.5           9934.9756     -8033.8008      5135.5013      988472.01      39432.051      10.704718      737.94711    
    106000   53             9905.4277     -7943.3273      5120.2277      997986.16      39371.257      10.721248      745.19803    
    107000   53.5           10075.505     -7946.4195      5208.1425      995818.48      39481.314      10.691361      755.72998    
    108000   54             10156.198     -7963.4739      5249.8535      1001781.3      39401.72       10.712958      762.2778     
    109000   54.5           10062.687     -7957.0522      5201.5171      985309.93      39644.319      10.647402      770.63086    
    110000   55             10088.176     -7895.5714      5214.6922      1008802.9      39333.746      10.731472      774.93282    
Loop time of 212.194 on 8 procs for 100000 steps with 4000 atoms

Performance: 20.359 ns/day, 1.179 hours/ns, 471.268 timesteps/s, 1.885 Matom-step/s
162.5% CPU use with 8 MPI tasks x 1 OpenMP threads

MPI task timing breakdown:
Section |  min time  |  avg time  |  max time  |%varavg| %total
---------------------------------------------------------------
Pair    | 113.5      | 113.65     | 113.78     |   0.9 | 53.56
Neigh   | 1.163      | 1.1747     | 1.198      |   1.1 |  0.55
Comm    | 37.526     | 37.721     | 37.873     |   2.0 | 17.78
Output  | 22.741     | 22.742     | 22.745     |   0.0 | 10.72
Modify  | 30.749     | 30.907     | 31.051     |   1.9 | 14.57
Other   |            | 5.997      |            |       |  2.83

Nlocal:            500 ave         505 max         492 min
Histogram: 1 1 0 0 0 0 2 2 0 2
Nghost:        2480.12 ave        2495 max        2460 min
Histogram: 1 0 0 0 1 2 2 0 1 1
Neighs:        35594.4 ave       36258 max       34823 min
Histogram: 2 0 0 1 1 1 0 0 1 2

Total # of neighbors = 284755
Ave neighs/atom = 71.18875
Neighbor list builds = 2410
Dangerous builds = 0
Total wall time: 0:03:53
