LAMMPS (2 Apr 2025)
KOKKOS mode with Kokkos version 4.6.0 is enabled (src/KOKKOS/kokkos.cpp:72)
  will use up to 1 GPU(s) per node
  using 1 OpenMP thread(s) per MPI task
Lattice spacing in x,y,z = 3.615 3.615 3.615
Created orthogonal box = (0 0 0) to (36.15 36.15 36.15)
  2 by 2 by 2 MPI processor grid
Created 4000 atoms
  using lattice units in orthogonal box = (0 0 0) to (36.15 36.15 36.15)
  create_atoms CPU = 0.006 seconds
Reading eam potential file Cu_u3.eam with DATE: 2007-06-11
Neighbor list info ...
  update: every = 1 steps, delay = 0 steps, check = yes
  max neighbors/atom: 2000, page size: 100000
  master list distance cutoff = 6.95
  ghost atom cutoff = 6.95
  binsize = 6.95, bins = 6 6 6
  1 neighbor lists, perpetual/occasional/extra = 1 0 0
  (1) pair eam/kk, perpetual
      attributes: half, newton on, kokkos_device
      pair build: half/bin/newton/kk/device
      stencil: half/bin/3d
      bin: kk/device
Setting up Verlet run ...
  Unit style    : metal
  Current step  : 0
  Time step     : 0.0005
WARNING: Fix STORE/ATOM not compatible with sending data in Kokkos communication (src/KOKKOS/comm_kokkos.cpp:766)
WARNING: Fix with atom-based arrays not compatible with sending data in Kokkos communication, switching to classic exchange/border communication (src/KOKKOS/comm_kokkos.cpp:779)
WARNING: Fix STORE/ATOM not compatible with Kokkos sorting on device (src/KOKKOS/atom_kokkos.cpp:212)
WARNING: Fix with atom-based arrays not compatible with Kokkos sorting on device, switching to classic host sorting (src/KOKKOS/atom_kokkos.cpp:218)
Per MPI rank memory allocation (min/avg/max) = 4.315 | 4.315 | 4.315 Mbytes
   Step          Time           Temp          PotEng         KinEng         Press          Volume        Density        c_Msd[4]   
         0   0              12000         -14160          6202.9358      140246.29      47241.633      8.9351058      0            
      1000   0.5            11863.563     -7545.1953      6132.4101      1000553.4      40468.292      10.430611      7.9707649    
      2000   1              11918.847     -7502.1359      6160.9867      1005824.4      40443.798      10.436928      17.295869    
      3000   1.5            11783.689     -7589.5336      6091.1221      990907.7       40520.004      10.417299      26.146865    
      4000   2              12014.83      -7670.7573      6210.6016      984988.07      40603.426      10.395896      35.740888    
      5000   2.5            12098.383     -7511.6015      6253.7913      1013046.4      40346.732      10.462037      45.100233    
      6000   3              12020.053     -7584.3927      6213.3015      1001041.3      40414.332      10.444537      53.949608    
      7000   3.5            11934.762     -7668.2912      6169.2138      993400.41      40434.728      10.439269      63.000457    
      8000   4              11866.446     -7622.3949      6133.9004      991317.2       40517.835      10.417857      71.211005    
      9000   4.5            11983.141     -7565.5075      6194.221       997726.21      40532.692      10.414038      80.502716    
     10000   5              11986.545     -7474.723       6195.981       1011114.6      40391.855      10.450349      89.179797    
Loop time of 19.3343 on 8 procs for 10000 steps with 4000 atoms

Performance: 22.344 ns/day, 1.074 hours/ns, 517.214 timesteps/s, 2.069 Matom-step/s
171.7% CPU use with 8 MPI tasks x 1 OpenMP threads

MPI task timing breakdown:
Section |  min time  |  avg time  |  max time  |%varavg| %total
---------------------------------------------------------------
Pair    | 11.501     | 11.523     | 11.545     |   0.4 | 59.60
Neigh   | 0.12829    | 0.12996    | 0.13098    |   0.3 |  0.67
Comm    | 3.8627     | 3.8838     | 3.9143     |   0.8 | 20.09
Output  | 0.00095206 | 0.0010525  | 0.0011141  |   0.1 |  0.01
Modify  | 3.128      | 3.1568     | 3.183      |   0.9 | 16.33
Other   |            | 0.6395     |            |       |  3.31

Nlocal:            500 ave         510 max         492 min
Histogram: 2 0 0 2 1 0 2 0 0 1
Nghost:        2459.38 ave        2473 max        2448 min
Histogram: 1 1 1 0 2 0 1 0 1 1
Neighs:        34646.8 ave       35617 max       34102 min
Histogram: 1 0 3 2 1 0 0 0 0 1

Total # of neighbors = 277174
Ave neighs/atom = 69.2935
Neighbor list builds = 264
Dangerous builds = 0
Setting up Verlet run ...
  Unit style    : metal
  Current step  : 10000
  Time step     : 0.0005
WARNING: Fix STORE/ATOM not compatible with Kokkos sorting on device (src/KOKKOS/atom_kokkos.cpp:212)
WARNING: Fix with atom-based arrays not compatible with Kokkos sorting on device, switching to classic host sorting (src/KOKKOS/atom_kokkos.cpp:218)
Per MPI rank memory allocation (min/avg/max) = 5.509 | 5.509 | 5.509 Mbytes
   Step          Time           Temp          PotEng         KinEng         Press          Volume        Density        c_Msd[4]   
     10000   5              11986.545     -7474.723       6195.981       1011114.6      40391.855      10.450349      89.179797    
     11000   5.5            3494.6787     -9384.1084      1806.439       998716.58      35832.374      11.780101      86.846241    
     12000   6              3130.7277     -9551.9923      1618.3086      1001781.3      35488.196      11.894349      87.161196    
     13000   6.5            3034.4068     -9639.0168      1568.5192      990284.9       35522.456      11.882877      87.647383    
     14000   7              3000.4308     -9562.262       1550.9566      1006284.4      35388.38       11.927898      88.104296    
     15000   7.5            2993.2858     -9521.2347      1547.2633      1013568        35333.088      11.946564      88.88886     
     16000   8              3008.7798     -9600.2812      1555.2723      994251.41      35506.681      11.888157      89.585567    
     17000   8.5            2955.3465     -9616.6746      1527.652       998165.81      35427.063      11.914874      90.080886    
     18000   9              3037.5893     -9424.2287      1570.1643      1032267.2      35205.662      11.989804      90.587663    
     19000   9.5            2993.4959     -9620.9475      1547.3719      991385.26      35521.961      11.883043      91.227967    
     20000   10             2995.3941     -9590.8852      1548.3531      1002196.5      35409.853      11.920665      91.445965    
     21000   10.5           3007.7843     -9500.1233      1554.7578      1020890.4      35261.586      11.970789      91.904368    
     22000   11             3039.1899     -9665.4733      1570.9917      982395.94      35599.726      11.857086      92.855531    
     23000   11.5           3003.0251     -9575.4096      1552.2977      1001311.4      35444.299      11.90908       93.065324    
     24000   12             3039.5885     -9462.9966      1571.1977      1024674.6      35267.073      11.968926      93.409305    
     25000   12.5           2950.5599     -9654.9389      1525.1778      988901.76      35498.43       11.89092       93.98296     
     26000   13             3018.2788     -9650.6639      1560.1825      988264.11      35530.846      11.880072      94.802424    
     27000   13.5           3042.4933     -9540.9965      1572.6992      1012337.7      35347.045      11.941847      95.058383    
     28000   14             3083.2789     -9489.3535      1593.7818      1017722.1      35330.614      11.9474        95.322366    
     29000   14.5           2977.237      -9629.4977      1538.9675      988464.06      35547.324      11.874565      95.90194     
     30000   15             2979.5524     -9535.2525      1540.1644      1013554.5      35316.386      11.952214      96.508389    
     31000   15.5           3000.4669     -9566.0873      1550.9753      1003922.4      35410.119      11.920575      97.031403    
     32000   16             3001.1343     -9655.2295      1551.3203      986151.3       35551.016      11.873331      97.727885    
     33000   16.5           3002.2151     -9587.6972      1551.879       1001340.8      35422.155      11.916525      98.216464    
     34000   17             2951.2366     -9539.747       1525.5276      1005245.6      35414.697      11.919035      98.331977    
     35000   17.5           2992.5535     -9568.5402      1546.8848      999716.76      35471.614      11.899909      99.156088    
     36000   18             2955.4115     -9564.6968      1527.6857      1004172.4      35397.75       11.924741      99.808398    
     37000   18.5           3058.5451     -9625.8388      1580.9966      987918.63      35577.553      11.864475      100.59369    
     38000   19             2961.9564     -9515.3152      1531.0688      1013249.8      35340.931      11.943913      100.77529    
     39000   19.5           2961.5408     -9578.79        1530.854       1002604.7      35406.656      11.921741      101.39046    
     40000   20             2960.4028     -9620.2936      1530.2657      992790.67      35482.714      11.896187      101.99317    
     41000   20.5           3029.9685     -9511.0015      1566.225       1019477.9      35273.414      11.966774      102.40425    
     42000   21             2999.2491     -9544.9616      1550.3458      1008091.8      35378.862      11.931107      103.16359    
     43000   21.5           3006.5737     -9612.3484      1554.132       992047.73      35516.855      11.884751      103.78396    
     44000   22             3032.1393     -9569.7227      1567.3472      1002131.6      35442.631      11.909641      104.35679    
     45000   22.5           3044.5602     -9569.7696      1573.7676      1001820.9      35450.806      11.906894      105.0368     
     46000   23             3007.7769     -9625.1941      1554.7539      990584.12      35527.666      11.881135      105.73659    
     47000   23.5           2926.659      -9668.735       1512.8231      985926.04      35514.903      11.885405      106.35285    
     48000   24             2955.5487     -9490.8497      1527.7566      1023242.1      35232.701      11.980603      106.09454    
     49000   24.5           2979.9375     -9582.297       1540.3634      1001538.1      35421.626      11.916703      106.99954    
     50000   25             2988.101      -9695.6199      1544.5832      980151.15      35575.647      11.865111      107.46497    
     51000   25.5           2947.6289     -9510.5063      1523.6627      1015761.3      35306.305      11.955626      107.33491    
     52000   26             3003.7314     -9595.8333      1552.6628      1000918.8      35418.754      11.917669      108.1735     
     53000   26.5           3025.0479     -9618.4004      1563.6815      991888.67      35520.714      11.88346       108.89498    
     54000   27             3035.2393     -9587.1932      1568.9496      1003056.3      35411.257      11.920192      109.19112    
     55000   27.5           2979.4669     -9496.1535      1540.1202      1020236.1      35272.899      11.966949      109.81009    
     56000   28             2960.1737     -9610.6344      1530.1473      993330.94      35494.369      11.89228       110.61132    
     57000   28.5           2989.2535     -9557.5565      1545.179       1008726.3      35351.799      11.940241      110.50143    
     58000   29             2959.913      -9492.0862      1530.0125      1020853.1      35262.928      11.970333      110.96696    
     59000   29.5           2996.1099     -9645.9491      1548.7231      989837.54      35511.615      11.886505      111.79982    
     60000   30             2999.3934     -9623.9775      1550.4204      995516.88      35455.595      11.905286      111.90413    
     61000   30.5           3022.3672     -9444.73        1562.2958      1033454.5      35163.11       12.004313      111.84691    
     62000   31             2952.3329     -9577.9551      1526.0943      998251.67      35468.22       11.901048      112.75443    
     63000   31.5           3015.8841     -9659.5074      1558.9446      985969.4       35546.269      11.874917      113.52436    
     64000   32             2976.2468     -9556.5248      1538.4557      1009782        35339.097      11.944532      114.05678    
     65000   32.5           3014.1031     -9520.8333      1558.024       1013978.6      35337.127      11.945199      114.40725    
     66000   33             2893.5936     -9729.0437      1495.7313      970581.22      35648.65       11.840813      115.415      
     67000   33.5           2981.1297     -9565.0909      1540.9797      1002988.1      35424.858      11.915616      115.67704    
     68000   34             3003.5866     -9582.5551      1552.5879      1004548.6      35389.439      11.927541      116.45961    
     69000   34.5           2900.2196     -9684.3691      1499.1563      979634.88      35583.57       11.862469      117.0157     
     70000   35             3011.7846     -9620.2746      1556.8256      998494.31      35421.002      11.916913      117.33838    
     71000   35.5           3048.8072     -9547.8408      1575.9629      1008815.4      35383.396      11.929578      117.77183    
     72000   36             3029.0582     -9593.6217      1565.7545      996914.78      35480.986      11.896766      118.30251    
     73000   36.5           3040.8636     -9579.2182      1571.8568      998406.52      35483.64       11.895876      118.76748    
     74000   37             2955.1346     -9525.9783      1527.5425      1015034.8      35302.38       11.956956      118.67688    
     75000   37.5           3007.7982     -9695.2661      1554.765       974167.91      35669.586      11.833863      120.28407    
     76000   38             2943.6121     -9600.9413      1521.5864      999618.72      35421.83       11.916634      120.03869    
     77000   38.5           3008.2923     -9530.5617      1555.0203      1007160.2      35417.265      11.91817       120.54253    
     78000   39             3000.2994     -9657.39        1550.8887      985606.08      35547.251      11.874589      121.19966    
     79000   39.5           2968.2562     -9616.3949      1534.3252      990359.4       35534.254      11.878932      122.11558    
     80000   40             3014.4658     -9560.913       1558.2115      1005039.6      35408.74       11.92104       122.0823     
     81000   40.5           2994.0932     -9597.1948      1547.6806      999630.25      35436.585      11.911672      122.86406    
     82000   41             2969.8754     -9599.9119      1535.1622      996278.09      35469.244      11.900704      123.20223    
     83000   41.5           3041.6055     -9493.1497      1572.2403      1021748.3      35269.796      11.968002      123.49855    
     84000   42             3009.9706     -9627.8832      1555.8879      989237.48      35544.448      11.875526      124.62282    
     85000   42.5           2999.4577     -9608.4544      1550.4536      993305.28      35510.372      11.886921      125.22591    
     86000   43             3004.5606     -9546.3338      1553.0914      1006873.2      35400.895      11.923682      125.60069    
     87000   43.5           3057.7085     -9500.2585      1580.5641      1019808.7      35294.174      11.959736      125.60831    
     88000   44             2969.3815     -9613.7751      1534.9069      992840.35      35501.019      11.890053      126.70066    
     89000   44.5           3034.2567     -9592.5843      1568.4416      997043.4       35479.992      11.8971        127.51775    
     90000   45             3003.121      -9612.758       1552.3472      999826.03      35411.705      11.920042      127.78423    
     91000   45.5           3021.8551     -9600.9385      1562.0311      991255.48      35549.934      11.873693      128.48729    
     92000   46             2987.1012     -9488.8689      1544.0664      1020171.6      35278.083      11.965191      128.88486    
     93000   46.5           3053.5799     -9677.9351      1578.43        983813.74      35565.876      11.86837       129.82227    
     94000   47             3009.1435     -9580.5832      1555.4603      1000288.7      35443.43       11.909372      130.30868    
     95000   47.5           3010.2441     -9547.697       1556.0292      1007395.1      35390.275      11.92726       130.77277    
     96000   48             2974.5149     -9711.339       1537.5604      979066.57      35574.402      11.865526      131.59399    
     97000   48.5           3040.951      -9549.3225      1571.902       1007304        35387.728      11.928118      131.76081    
     98000   49             3006.8638     -9573.2662      1554.2819      1003976.7      35398.777      11.924395      132.29266    
     99000   49.5           3003.297      -9596.0316      1552.4382      998520.96      35458.518      11.904305      132.82094    
    100000   50             2994.2793     -9679.4835      1547.7768      979047.01      35612.225      11.852924      133.66258    
    101000   50.5           2972.3844     -9517.1856      1536.4591      1017109.9      35294.846      11.959508      133.83106    
    102000   51             2989.7506     -9612.0275      1545.4359      1000976.1      35391.52       11.92684       134.18027    
    103000   51.5           3034.9391     -9690.9715      1568.7944      976001.36      35650.832      11.840088      134.97014    
    104000   52             2998.5106     -9541.1595      1549.9641      1011983.5      35334.577      11.946061      134.97558    
    105000   52.5           2996.6557     -9553.2181      1549.0053      1007703.7      35374.501      11.932578      135.80032    
    106000   53             3030.9076     -9664.4476      1566.7104      978984.08      35648.7        11.840796      136.73415    
    107000   53.5           3034.4397     -9606.1899      1568.5362      995319.23      35488.83       11.894137      137.04706    
    108000   54             2972.0387     -9552.6323      1536.2805      1007085.2      35387.423      11.928221      137.83123    
    109000   54.5           3038.1778     -9572.7777      1570.4685      997559.28      35504.129      11.889012      138.54654    
    110000   55             3036.4734     -9618.5727      1569.5875      994389.6       35493.716      11.892499      138.95468    
Loop time of 203.197 on 8 procs for 100000 steps with 4000 atoms

Performance: 21.260 ns/day, 1.129 hours/ns, 492.134 timesteps/s, 1.969 Matom-step/s
166.9% CPU use with 8 MPI tasks x 1 OpenMP threads

MPI task timing breakdown:
Section |  min time  |  avg time  |  max time  |%varavg| %total
---------------------------------------------------------------
Pair    | 118.86     | 119.1      | 119.34     |   1.5 | 58.62
Neigh   | 0.55196    | 0.55877    | 0.56465    |   0.6 |  0.27
Comm    | 38.706     | 38.848     | 39.138     |   2.2 | 19.12
Output  | 3.8907     | 4.2891     | 7.0722     |  50.8 |  2.11
Modify  | 31.115     | 34.11      | 34.771     |  19.6 | 16.79
Other   |            | 6.286      |            |       |  3.09

Nlocal:            500 ave         505 max         492 min
Histogram: 1 1 0 0 1 0 0 2 1 2
Nghost:           2651 ave        2656 max        2646 min
Histogram: 2 0 0 1 0 1 1 1 0 2
Neighs:        39509.8 ave       40028 max       38728 min
Histogram: 1 1 0 1 0 0 1 1 1 2

Total # of neighbors = 316078
Ave neighs/atom = 79.0195
Neighbor list builds = 1111
Dangerous builds = 0
Total wall time: 0:03:44
