LAMMPS (2 Apr 2025)
KOKKOS mode with Kokkos version 4.6.0 is enabled (src/KOKKOS/kokkos.cpp:72)
  will use up to 1 GPU(s) per node
  using 1 OpenMP thread(s) per MPI task
Lattice spacing in x,y,z = 3.615 3.615 3.615
Created orthogonal box = (0 0 0) to (36.15 36.15 36.15)
  2 by 2 by 2 MPI processor grid
Created 4000 atoms
  using lattice units in orthogonal box = (0 0 0) to (36.15 36.15 36.15)
  create_atoms CPU = 0.007 seconds
Reading eam potential file Cu_u3.eam with DATE: 2007-06-11
Neighbor list info ...
  update: every = 1 steps, delay = 0 steps, check = yes
  max neighbors/atom: 2000, page size: 100000
  master list distance cutoff = 6.95
  ghost atom cutoff = 6.95
  binsize = 6.95, bins = 6 6 6
  1 neighbor lists, perpetual/occasional/extra = 1 0 0
  (1) pair eam/kk, perpetual
      attributes: half, newton on, kokkos_device
      pair build: half/bin/newton/kk/device
      stencil: half/bin/3d
      bin: kk/device
Setting up Verlet run ...
  Unit style    : metal
  Current step  : 0
  Time step     : 0.0005
WARNING: Fix STORE/ATOM not compatible with sending data in Kokkos communication (src/KOKKOS/comm_kokkos.cpp:766)
WARNING: Fix with atom-based arrays not compatible with sending data in Kokkos communication, switching to classic exchange/border communication (src/KOKKOS/comm_kokkos.cpp:779)
WARNING: Fix STORE/ATOM not compatible with Kokkos sorting on device (src/KOKKOS/atom_kokkos.cpp:212)
WARNING: Fix with atom-based arrays not compatible with Kokkos sorting on device, switching to classic host sorting (src/KOKKOS/atom_kokkos.cpp:218)
Per MPI rank memory allocation (min/avg/max) = 4.315 | 4.315 | 4.315 Mbytes
   Step          Time           Temp          PotEng         KinEng         Press          Volume        Density        c_Msd[4]   
         0   0              12000         -14160          6202.9358      140246.29      47241.633      8.9351058      0            
      1000   0.5            11863.563     -7545.1953      6132.4101      1000553.4      40468.292      10.430611      7.9707649    
      2000   1              11918.847     -7502.1359      6160.9867      1005824.4      40443.798      10.436928      17.295869    
      3000   1.5            11771.204     -7551.3855      6084.6685      994147.43      40509.723      10.419943      26.10257     
      4000   2              12076.285     -7659.7313      6242.3685      1001259.7      40330.996      10.466119      35.367725    
      5000   2.5            12075.933     -7647.2775      6242.1866      986355.49      40632.524      10.388451      44.234118    
      6000   3              12002.219     -7696.2997      6204.0831      991972.83      40427.237      10.441203      52.641577    
      7000   3.5            12492.773     -7682.7832      6457.6557      1004035.5      40375.889      10.454482      61.380231    
      8000   4              11872.884     -7628.8232      6137.2282      986763.14      40588.614      10.39969       70.69455     
      9000   4.5            12188.22      -7671.5271      6300.229       991365.57      40544.01       10.411131      79.972524    
     10000   5              12188.233     -7559.3874      6300.2354      999388.72      40572.362      10.403855      89.132282    
Loop time of 19.1503 on 8 procs for 10000 steps with 4000 atoms

Performance: 22.558 ns/day, 1.064 hours/ns, 522.185 timesteps/s, 2.089 Matom-step/s
171.2% CPU use with 8 MPI tasks x 1 OpenMP threads

MPI task timing breakdown:
Section |  min time  |  avg time  |  max time  |%varavg| %total
---------------------------------------------------------------
Pair    | 11.485     | 11.507     | 11.542     |   0.5 | 60.09
Neigh   | 0.12833    | 0.13136    | 0.14414    |   1.4 |  0.69
Comm    | 3.7772     | 3.8052     | 3.824      |   0.7 | 19.87
Output  | 0.00095923 | 0.0010542  | 0.0011353  |   0.1 |  0.01
Modify  | 3.08       | 3.0942     | 3.1106     |   0.5 | 16.16
Other   |            | 0.6118     |            |       |  3.19

Nlocal:            500 ave         506 max         495 min
Histogram: 2 1 1 0 0 2 0 0 0 2
Nghost:         2448.5 ave        2462 max        2442 min
Histogram: 3 1 0 1 1 0 0 1 0 1
Neighs:        34407.4 ave       34893 max       33993 min
Histogram: 1 1 2 0 1 0 0 1 0 2

Total # of neighbors = 275259
Ave neighs/atom = 68.81475
Neighbor list builds = 264
Dangerous builds = 0
Setting up Verlet run ...
  Unit style    : metal
  Current step  : 10000
  Time step     : 0.0005
WARNING: Fix STORE/ATOM not compatible with Kokkos sorting on device (src/KOKKOS/atom_kokkos.cpp:212)
WARNING: Fix with atom-based arrays not compatible with Kokkos sorting on device, switching to classic host sorting (src/KOKKOS/atom_kokkos.cpp:218)
Per MPI rank memory allocation (min/avg/max) = 5.509 | 5.509 | 5.509 Mbytes
   Step          Time           Temp          PotEng         KinEng         Press          Volume        Density        c_Msd[4]   
     10000   5              12188.233     -7559.3874      6300.2354      999388.72      40572.362      10.403855      89.132282    
     11000   5.5            4429.3805     -9124.23        2289.5969      996847.1       36424.906      11.588472      88.114299    
     12000   6              4111.2379     -9236.3182      2125.1454      1001764.9      36131.34       11.682628      89.023801    
     13000   6.5            4003.1367     -9242.2151      2069.2667      1003601.8      36082.318      11.6985        90.258634    
     14000   7              4016.4278     -9314.6699      2076.137       986810.41      36221.016      11.653704      91.664083    
     15000   7.5            3960.0953     -9273.2812      2047.0181      995266.73      36133.949      11.681784      92.920528    
     16000   8              4028.847      -9235.5228      2082.5566      1004122.2      36076.946      11.700242      94.20124     
     17000   8.5            4017.4697     -9314.322       2076.6755      989687.02      36176.877      11.667922      95.960155    
     18000   9              3953.0388     -9328.6263      2043.3705      987547.94      36182.803      11.666011      96.949482    
     19000   9.5            3999.7622     -9216.2611      2067.5224      1013033.2      35958.7        11.738717      97.802999    
     20000   10             3987.7804     -9274.1302      2061.3288      997214.25      36131.233      11.682662      98.88872     
     21000   10.5           3970.3712     -9318.4664      2052.3298      984308.9       36248.241      11.644951      100.33169    
     22000   11             3989.7298     -9168.9803      2062.3365      1017100        35966.759      11.736087      101.35625    
     23000   11.5           3953.5576     -9205.8444      2043.6387      1008476.6      36035.798      11.713602      102.50545    
     24000   12             4000.1056     -9356.7664      2067.6999      981164.89      36252.799      11.643487      103.7641     
     25000   12.5           3939.6779     -9239.9621      2036.4641      1003199.5      36058.917      11.706092      104.86274    
     26000   13             3976.0735     -9268.8849      2055.2774      1001898.4      36043.351      11.711147      106.05322    
     27000   13.5           3893.8606     -9299.5535      2012.7806      992791.8       36124.978      11.684685      107.59555    
     28000   14             3969.8161     -9170.7284      2052.0429      1018684.3      35942.049      11.744155      108.46978    
     29000   14.5           4020.7021     -9216.3939      2078.3464      1005800.6      36067.921      11.703169      109.99024    
     30000   15             4040.7672     -9347.772       2088.7183      987224.92      36172.52       11.669328      111.06396    
     31000   15.5           4030.8424     -9177.7479      2083.5881      1015372.5      35980.975      11.731449      112.22507    
     32000   16             4037.2915     -9253.0049      2086.9217      1004087.6      36051.115      11.708625      113.39446    
     33000   16.5           4081.212      -9313.5834      2109.6247      993898.79      36136.919      11.680824      114.6382     
     34000   17             4075.8181     -9272.285       2106.8365      1002479.8      36060.247      11.70566       115.89186    
     35000   17.5           4050.1128     -9191.4206      2093.5491      1014528.8      35984.309      11.730363      116.91169    
     36000   18             3975.0048     -9360.3217      2054.725       982166.22      36211.404      11.656797      118.71712    
     37000   18.5           4098.3668     -9271.2094      2118.4922      1001505        36080.344      11.69914       119.58965    
     38000   19             4049.5359     -9152.457       2093.2509      1023497.4      35900.16       11.757858      120.41478    
     39000   19.5           3998.0498     -9315.4048      2066.6372      991001.6       36152.969      11.675638      121.94441    
     40000   20             3951.5651     -9265.8087      2042.6087      996151.87      36142.633      11.678977      123.33117    
     41000   20.5           3955.1372     -9234.5007      2044.4552      1004515.4      36049.818      11.709046      124.23703    
     42000   21             4047.1592     -9229.4781      2092.0224      1000696.8      36132.472      11.682262      125.62082    
     43000   21.5           3983.3584     -9364.7949      2059.043       976801.6       36295.611      11.629753      127.3817     
     44000   22             3979.3478     -9170.7779      2056.9699      1012104.2      36033.685      11.714289      127.6677     
     45000   22.5           3995.3698     -9204.471       2065.2519      1006309.9      36084.314      11.697853      129.27424    
     46000   23             4036.4065     -9338.6643      2086.4642      980865.41      36279.221      11.635007      130.45933    
     47000   23.5           4108.9296     -9189.4383      2123.9522      1018946.1      35936.402      11.746         130.53377    
     48000   24             3996.9431     -9263.4549      2066.0651      1000146.6      36089.252      11.696252      132.06588    
     49000   24.5           3933.1491     -9438.1998      2033.0893      968047.96      36316.936      11.622924      133.89229    
     50000   25             3982.1775     -9239.2906      2058.4326      1004267        36054.833      11.707418      134.76875    
     51000   25.5           4031.591      -9239.3253      2083.975       1010611        35971.229      11.734628      136.03859    
     52000   26             3967.2968     -9355.3339      2050.7406      982957.26      36213.78       11.656032      137.50335    
     53000   26.5           3918.4744     -9254.9269      2025.5038      1000003.3      36095.057      11.694371      138.97594    
     54000   27             4037.1104     -9216.307       2086.8281      1009527.2      36025.246      11.717033      140.00903    
     55000   27.5           3999.9415     -9387.7327      2067.615       971960.92      36348.234      11.612916      141.70045    
     56000   28             4023.6507     -9253.8623      2079.8706      1003619.3      36062.865      11.70481       142.13947    
     57000   28.5           4089.13       -9259.4047      2113.7176      1001683.8      36100.355      11.692655      143.98926    
     58000   29             3994.96       -9327.1144      2065.04        986901.41      36202.099      11.659793      145.17621    
     59000   29.5           3995.4998     -9181.5689      2065.3191      1017627.1      35926.517      11.749232      145.81373    
     60000   30             4031.9322     -9287.2227      2084.1514      998914.39      36091.517      11.695518      147.02099    
     61000   30.5           3954.2632     -9338.0965      2044.0034      984705.46      36206.228      11.658464      147.91992    
     62000   31             4068.8813     -9129.0852      2103.2508      1025640.4      35915.552      11.752819      148.59871    
     63000   31.5           3921.4181     -9222.574       2027.0254      1004976.4      36053.321      11.707909      150.29192    
     64000   32             3978.8403     -9324.6772      2056.7076      986796.82      36202.025      11.659817      151.37669    
     65000   32.5           4060.5646     -9210.5223      2098.9518      1012804.8      35994.967      11.726889      152.03183    
     66000   33             3949.2986     -9159.6805      2041.4371      1017319.9      35957.704      11.739042      153.07277    
     67000   33.5           4027.0193     -9336.8379      2081.6119      987209.73      36188.25       11.664256      154.51055    
     68000   34             3977.9546     -9295.6701      2056.2498      990361.39      36185.735      11.665066      155.79295    
     69000   34.5           4008.5858     -9198.3366      2072.0834      1015417.2      35954.767      11.740001      156.2366     
     70000   35             3993.7319     -9267.7677      2064.4052      995763.56      36153.006      11.675627      157.66123    
     71000   35.5           4084.2893     -9215.1294      2111.2154      1010874.9      36013.729      11.72078       158.40952    
     72000   36             3974.7216     -9209.7038      2054.5786      1010873.3      35992.395      11.727727      159.23858    
     73000   36.5           4061.3422     -9406.8858      2099.3537      967121.07      36408.146      11.593806      161.25266    
     74000   37             4079.6557     -9297.1461      2108.8202      997218.55      36102.82       11.691856      161.85351    
     75000   37.5           4071.499      -9267.6689      2104.6039      998287.87      36123.659      11.685112      163.16456    
     76000   38             4045.822      -9184.133       2091.3312      1012801.6      36021.71       11.718183      164.01503    
     77000   38.5           4082.5846     -9178.7074      2110.3342      1012175.4      36042.653      11.711374      165.23487    
     78000   39             3988.5045     -9372.0306      2061.7031      976600.58      36281.464      11.634288      166.967      
     79000   39.5           4009.4574     -9236.7758      2072.5339      1001071.7      36115.971      11.687599      167.62669    
     80000   40             4017.2453     -9239.8832      2076.5596      1008658.3      35998.747      11.725658      168.86262    
     81000   40.5           3968.499      -9365.822       2051.3621      975743.59      36307.867      11.625827      171.25862    
     82000   41             3980.553      -9269.8423      2057.5929      1001122.1      36064.322      11.704338      171.83519    
     83000   41.5           3983.7469     -9265.1581      2059.2439      998578.61      36109.078      11.68983       173.73791    
     84000   42             4082.4335     -9295.5363      2110.2561      994288.78      36162.426      11.672585      175.13029    
     85000   42.5           4028.4715     -9210.7319      2082.3625      1012728.6      35983.182      11.73073       175.47726    
     86000   43             3979.1511     -9286.6407      2056.8682      994264.39      36147.651      11.677356      176.71004    
     87000   43.5           4009.9709     -9333.4785      2072.7994      988009.89      36193.176      11.662668      177.80005    
     88000   44             4039.4316     -9212.736       2088.0279      1010146.8      36031.28       11.715071      178.90838    
     89000   44.5           4011.2673     -9190.6888      2073.4695      1011651.4      36016.971      11.719725      180.08737    
     90000   45             4033.0015     -9323.1452      2084.7041      985499.47      36235.4        11.649078      181.93254    
     91000   45.5           4015.1521     -9209.7748      2075.4776      1011477.7      35992.258      11.727772      182.34289    
     92000   46             4030.3639     -9244.0866      2083.3407      1005372.2      36046.827      11.710018      183.06519    
     93000   46.5           3990.3042     -9341.1553      2062.6334      984450.78      36206.199      11.658473      185.19085    
     94000   47             3991.0885     -9184.9094      2063.0388      1016437.4      35954.841      11.739977      185.55263    
     95000   47.5           4085.7157     -9274.9366      2111.9527      997329.65      36135.306      11.681346      187.74231    
     96000   48             4045.0484     -9327.4197      2090.9313      988934.42      36180.476      11.666762      189.28275    
     97000   48.5           4041.9772     -9214.7949      2089.3438      1006923.6      36064.879      11.704157      190.32226    
     98000   49             3855.5537     -9229.8658      1992.9794      1003573.6      36060.363      11.705622      191.17978    
     99000   49.5           3977.0029     -9264.8563      2055.7578      999911.7       36079.635      11.69937       192.18211    
    100000   50             3917.9222     -9252.4584      2025.2183      992755.11      36189.732      11.663778      193.88192    
    101000   50.5           3992.7914     -9228.2151      2063.9191      1005811.8      36045.426      11.710473      195.33684    
    102000   51             3990.905      -9202.1992      2062.944       1016571.9      35930.23       11.748018      196.53822    
    103000   51.5           3998.8567     -9320.882       2067.0543      993837.3       36094.747      11.694472      198.12889    
    104000   52             3992.2394     -9269.8559      2063.6337      1005521        36001.757      11.724677      198.85069    
    105000   52.5           3999.7208     -9244.3876      2067.5009      1001225.5      36103.003      11.691797      199.73275    
    106000   53             3962.3912     -9372.973       2048.2049      976022.27      36280.497      11.634598      201.36233    
    107000   53.5           4016.6934     -9258.0299      2076.2743      1005024.4      36023.285      11.717671      201.35976    
    108000   54             4092.5915     -9311.1154      2115.5069      993038.38      36157.926      11.674038      203.05369    
    109000   54.5           4027.4256     -9256.3624      2081.8219      999099.5       36119.31       11.686519      203.82844    
    110000   55             4011.6294     -9182.2992      2073.6566      1020628.6      35893.758      11.759955      203.86691    
Loop time of 194.021 on 8 procs for 100000 steps with 4000 atoms

Performance: 22.266 ns/day, 1.078 hours/ns, 515.407 timesteps/s, 2.062 Matom-step/s
169.3% CPU use with 8 MPI tasks x 1 OpenMP threads

MPI task timing breakdown:
Section |  min time  |  avg time  |  max time  |%varavg| %total
---------------------------------------------------------------
Pair    | 117.7      | 117.87     | 118.12     |   1.4 | 60.75
Neigh   | 0.68565    | 0.69313    | 0.70492    |   0.8 |  0.36
Comm    | 37.883     | 38.084     | 38.249     |   2.0 | 19.63
Output  | 0.018867   | 0.099391   | 0.65707    |  66.9 |  0.05
Modify  | 30.795     | 31.369     | 31.603     |   4.2 | 16.17
Other   |            | 5.909      |            |       |  3.05

Nlocal:            500 ave         507 max         493 min
Histogram: 1 1 0 1 1 0 2 1 0 1
Nghost:         2619.5 ave        2632 max        2604 min
Histogram: 1 0 1 1 0 2 0 1 1 1
Neighs:        38815.1 ave       39446 max       38176 min
Histogram: 1 0 1 0 3 0 1 0 1 1

Total # of neighbors = 310521
Ave neighs/atom = 77.63025
Neighbor list builds = 1385
Dangerous builds = 0
Total wall time: 0:03:35
