LAMMPS (2 Apr 2025)
KOKKOS mode with Kokkos version 4.6.0 is enabled (src/KOKKOS/kokkos.cpp:72)
  will use up to 1 GPU(s) per node
  using 1 OpenMP thread(s) per MPI task
Lattice spacing in x,y,z = 3.615 3.615 3.615
Created orthogonal box = (0 0 0) to (36.15 36.15 36.15)
  2 by 2 by 2 MPI processor grid
Created 4000 atoms
  using lattice units in orthogonal box = (0 0 0) to (36.15 36.15 36.15)
  create_atoms CPU = 0.006 seconds
Reading eam potential file Cu_u3.eam with DATE: 2007-06-11
Neighbor list info ...
  update: every = 1 steps, delay = 0 steps, check = yes
  max neighbors/atom: 2000, page size: 100000
  master list distance cutoff = 6.95
  ghost atom cutoff = 6.95
  binsize = 6.95, bins = 6 6 6
  1 neighbor lists, perpetual/occasional/extra = 1 0 0
  (1) pair eam/kk, perpetual
      attributes: half, newton on, kokkos_device
      pair build: half/bin/newton/kk/device
      stencil: half/bin/3d
      bin: kk/device
Setting up Verlet run ...
  Unit style    : metal
  Current step  : 0
  Time step     : 0.0005
WARNING: Fix STORE/ATOM not compatible with sending data in Kokkos communication (src/KOKKOS/comm_kokkos.cpp:766)
WARNING: Fix with atom-based arrays not compatible with sending data in Kokkos communication, switching to classic exchange/border communication (src/KOKKOS/comm_kokkos.cpp:779)
WARNING: Fix STORE/ATOM not compatible with Kokkos sorting on device (src/KOKKOS/atom_kokkos.cpp:212)
WARNING: Fix with atom-based arrays not compatible with Kokkos sorting on device, switching to classic host sorting (src/KOKKOS/atom_kokkos.cpp:218)
Per MPI rank memory allocation (min/avg/max) = 4.315 | 4.315 | 4.315 Mbytes
   Step          Time           Temp          PotEng         KinEng         Press          Volume        Density        c_Msd[4]   
         0   0              12000         -14160          6202.9358      140246.29      47241.633      8.9351058      0            
      1000   0.5            11863.563     -7545.1953      6132.4101      1000553.4      40468.292      10.430611      7.9707649    
      2000   1              11918.847     -7502.1359      6160.9867      1005824.4      40443.798      10.436928      17.295869    
      3000   1.5            11783.239     -7593.5388      6090.8896      990703.24      40520.651      10.417133      26.147277    
      4000   2              12004.998     -7645.2865      6205.5194      994772.56      40456.64       10.433615      35.652553    
      5000   2.5            11994.583     -7415.9794      6200.1358      1020160.7      40325.661      10.467503      44.212772    
      6000   3              11975.253     -7592.017       6190.1438      993840.8       40587.323      10.40002       53.022523    
      7000   3.5            12066.656     -7699.279       6237.3909      984666.08      40565.254      10.405679      61.408772    
      8000   4              11892.552     -7597.9144      6147.3949      1002735.1      40336.97       10.464569      69.959609    
      9000   4.5            12002.319     -7471.0116      6204.1343      1007936.5      40452.558      10.434668      79.469807    
     10000   5              12020.315     -7678.8011      6213.4368      990970.04      40500.666      10.422273      88.128565    
Loop time of 19.1413 on 8 procs for 10000 steps with 4000 atoms

Performance: 22.569 ns/day, 1.063 hours/ns, 522.431 timesteps/s, 2.090 Matom-step/s
171.1% CPU use with 8 MPI tasks x 1 OpenMP threads

MPI task timing breakdown:
Section |  min time  |  avg time  |  max time  |%varavg| %total
---------------------------------------------------------------
Pair    | 11.495     | 11.506     | 11.521     |   0.2 | 60.11
Neigh   | 0.12803    | 0.13098    | 0.14333    |   1.3 |  0.68
Comm    | 3.7756     | 3.7873     | 3.8113     |   0.5 | 19.79
Output  | 0.00098745 | 0.0010065  | 0.0010422  |   0.1 |  0.01
Modify  | 3.0954     | 3.1065     | 3.1215     |   0.5 | 16.23
Other   |            | 0.6093     |            |       |  3.18

Nlocal:            500 ave         512 max         487 min
Histogram: 1 0 1 0 2 1 1 0 1 1
Nghost:        2452.38 ave        2465 max        2441 min
Histogram: 1 0 2 1 0 1 2 0 0 1
Neighs:        34372.6 ave       35781 max       32916 min
Histogram: 1 0 1 0 3 0 1 0 1 1

Total # of neighbors = 274981
Ave neighs/atom = 68.74525
Neighbor list builds = 264
Dangerous builds = 0
Setting up Verlet run ...
  Unit style    : metal
  Current step  : 10000
  Time step     : 0.0005
WARNING: Fix STORE/ATOM not compatible with Kokkos sorting on device (src/KOKKOS/atom_kokkos.cpp:212)
WARNING: Fix with atom-based arrays not compatible with Kokkos sorting on device, switching to classic host sorting (src/KOKKOS/atom_kokkos.cpp:218)
Per MPI rank memory allocation (min/avg/max) = 5.509 | 5.509 | 5.509 Mbytes
   Step          Time           Temp          PotEng         KinEng         Press          Volume        Density        c_Msd[4]   
     10000   5              12020.315     -7678.8011      6213.4368      990970.04      40500.666      10.422273      88.128565    
     11000   5.5            5297.1888     -8852.4432      2738.1769      1002215.1      36918.646      11.433491      88.375018    
     12000   6              5029.4194     -8980.4064      2599.7638      999400.26      36719.394      11.495533      90.337374    
     13000   6.5            4909.1155     -8916.0394      2537.5774      1006559        36667.986      11.511649      92.307562    
     14000   7              5013.1244     -9133.1271      2591.3407      974371.81      36905.465      11.437574      93.928381    
     15000   7.5            5088.1707     -8987.7022      2630.133       1002635.8      36667.374      11.511841      95.820749    
     16000   8              5075.3821     -8956.7225      2623.5224      1006617.7      36644.163      11.519133      98.52199     
     17000   8.5            5018.8345     -9007.5219      2594.2924      994871.23      36755.457      11.484254      101.03232    
     18000   9              5045.3908     -9073.0893      2608.0196      981203.37      36866.53       11.449654      103.23859    
     19000   9.5            5067.2569     -8938.8019      2619.3224      1003762        36728.256      11.492759      104.8386     
     20000   10             4981.1185     -8988.7361      2574.7965      997867.84      36719.261      11.495574      107.11835    
     21000   10.5           4931.5571     -9050.859       2549.1777      984623.59      36839.324      11.458109      109.43086    
     22000   11             5094.38       -8966.2074      2633.3427      1003371        36699.044      11.501907      111.18626    
     23000   11.5           4912.0259     -9084.2517      2539.0818      982033.4       36817.859      11.464789      113.60679    
     24000   12             4947.535      -8935.455       2557.4369      1001676.8      36717.93       11.495991      115.94632    
     25000   12.5           4976.8532     -8970.3535      2572.5918      1008162.7      36593.258      11.535158      117.81412    
     26000   13             4926.186      -9036.744       2546.4013      987589.98      36815.732      11.465451      120.37288    
     27000   13.5           4983.3991     -8899.9286      2575.9754      1020188.8      36500.616      11.564435      121.40942    
     28000   14             4970.1314     -8908.3441      2569.1172      1009846        36643.823      11.51924       123.69301    
     29000   14.5           4885.9641     -9020.3577      2525.6102      984452.75      36870.332      11.448473      125.9376     
     30000   15             4938.1558     -8943.9266      2552.5886      1007585.1      36613.107      11.528904      127.22443    
     31000   15.5           5058.5867     -8936.9073      2614.8407      1007271        36655.982      11.515419      129.09407    
     32000   16             5097.4525     -8979.6551      2634.9309      999927.05      36726.932      11.493173      131.68209    
     33000   16.5           4926.9227     -9109.9759      2546.7821      972943.25      36928.487      11.430444      133.5105     
     34000   17             5007.3818     -8937.7637      2588.3723      1004927.6      36687.322      11.505582      134.36661    
     35000   17.5           4966.5979     -8995.3598      2567.2907      999320.37      36692.609      11.503924      135.94749    
     36000   18             4976.3642     -9071.939       2572.339       981769.79      36855.072      11.453213      138.3329     
     37000   18.5           5028.4814     -8894.3797      2599.279       1017439.7      36557.065      11.546578      139.58418    
     38000   19             4983.3472     -8983.9654      2575.9486      995785.74      36757.834      11.483511      142.20632    
     39000   19.5           4825.8995     -8999.9935      2494.5621      992231.09      36755.487      11.484244      144.6692     
     40000   20             5045.7631     -8899.9182      2608.2121      1019952.6      36505.148      11.562999      146.03729    
     41000   20.5           5117.8781     -8985.2738      2645.4891      996131.92      36794.607      11.472034      148.54381    
     42000   21             5033.6544     -9057.3627      2601.9529      987783.47      36783.887      11.475378      150.47229    
     43000   21.5           4996.4652     -8837.9018      2582.7294      1026770.8      36510.752      11.561224      151.22359    
     44000   22             4981.4265     -8987.891       2574.9558      1003560.1      36634.706      11.522107      153.18358    
     45000   22.5           4937.2337     -9070.0177      2552.112       981640.42      36849.629      11.454905      155.38438    
     46000   23             5047.567      -8796.2376      2609.1445      1028941.1      36515.758      11.559639      156.38925    
     47000   23.5           5049.706      -8968.9179      2610.2502      1000321        36734.875      11.490688      159.61341    
     48000   24             4991.1081     -8989.3959      2579.9603      999921.81      36680.501      11.507722      161.29666    
     49000   24.5           4991.3925     -8984.8702      2580.1073      1005386.7      36611.47       11.529419      163.23812    
     50000   25             4931.3021     -9094.9228      2549.0459      976523.04      36900.837      11.439009      165.98148    
     51000   25.5           5028.7413     -8951.3021      2599.4133      1006382.5      36649.246      11.517536      167.12485    
     52000   26             5076.046      -9023.2032      2623.8657      989667.72      36819.638      11.464235      169.42331    
     53000   26.5           5043.4073     -9019.0272      2606.9943      992270.24      36782.717      11.475743      171.54229    
     54000   27             5096.811      -9007.7352      2634.5993      1000346.6      36688.257      11.505289      173.74931    
     55000   27.5           5014.5836     -8873.1012      2592.095       1018631.8      36576.584      11.540416      176.19686    
     56000   28             4998.5815     -9080.1294      2583.8234      979072.7       36882.122      11.444813      178.44636    
     57000   28.5           5154.6267     -9004.824       2664.4849      997531.64      36759.896      11.482867      180.13416    
     58000   29             5032.9471     -9016.5775      2601.5873      1001423.8      36637.592      11.521199      181.66135    
     59000   29.5           5057.98       -9028.9025      2614.5271      995841.07      36719.028      11.495647      183.54852    
     60000   30             4975.6372     -9001.0213      2571.9632      1004147.7      36617.221      11.527609      184.60811    
     61000   30.5           4966.1477     -9016.5382      2567.0579      996180.34      36715.642      11.496708      185.98236    
     62000   31             5103.013      -9039.3989      2637.8052      989338.55      36804.563      11.468931      188.23729    
     63000   31.5           4974.2796     -8929.0646      2571.2614      1013995.6      36556.807      11.546659      189.49473    
     64000   32             4901.2261     -8933.9504      2533.4992      1008741.1      36608.938      11.530217      191.25663    
     65000   32.5           4947.8015     -9023.2477      2557.5746      993517.08      36730.615      11.492021      193.72724    
     66000   33             4903.7211     -8925.4165      2534.7889      1007324.6      36648.939      11.517632      195.40519    
     67000   33.5           5034.9226     -8878.5548      2602.6085      1023900.4      36480.165      11.570918      196.90822    
     68000   34             4994.7403     -9064.0283      2581.8378      982535.48      36844.823      11.456399      200.23285    
     69000   34.5           4911.806      -8933.5292      2538.9681      1011155.3      36584.414      11.537946      201.5293     
     70000   35             4960.629      -8896.3713      2564.2053      1015030.2      36580.005      11.539337      203.2006     
     71000   35.5           4987.6891     -9013.0151      2578.1929      989718.81      36829.777      11.461079      205.97639    
     72000   36             4897.239      -8976.5833      2531.4383      994631.09      36765.678      11.481061      207.96661    
     73000   36.5           5123.8634     -8827.2384      2648.583       1032490.4      36447.727      11.581216      209.6432     
     74000   37             4980.9457     -8984.8441      2574.7072      994021.58      36774.823      11.478206      212.98353    
     75000   37.5           5039.937      -8984.1877      2605.2005      999874.6       36694.403      11.503362      214.53325    
     76000   38             5001.3712     -8950.1982      2585.2654      1009781.4      36593.83       11.534977      216.78705    
     77000   38.5           5047.795      -9099.5309      2609.2624      975386.52      36943.85       11.42569       220.38892    
     78000   39             5048.9818     -8910.0262      2609.8759      1012112.9      36635.841      11.52175       221.22175    
     79000   39.5           5033.7904     -9001.6681      2602.0232      996874.88      36733.293      11.491183      224.11938    
     80000   40             4947.2971     -9086.3329      2557.3139      978645.16      36888.523      11.442827      226.24891    
     81000   40.5           5028.9099     -8948.7527      2599.5005      1001262.7      36736.84       11.490073      228.2487     
     82000   41             5027.9484     -8960.3264      2599.0034      1002543.5      36698.65       11.502031      230.55511    
     83000   41.5           4994.7449     -9031.1347      2581.8402      990997.95      36769.117      11.479987      233.48618    
     84000   42             5025.5002     -8928.688       2597.7379      1010616.6      36622.512      11.525943      234.44218    
     85000   42.5           4993.3666     -8938.0193      2581.1277      1004040.9      36695.123      11.503136      236.39985    
     86000   43             5050.1044     -9019.6411      2610.4561      989876.71      36814.717      11.465768      238.40429    
     87000   43.5           5155.1224     -8790.0041      2664.7411      1036657.5      36445.827      11.58182       238.71446    
     88000   44             4939.4351     -9008.3086      2553.2499      1000417.2      36661.791      11.513595      241.28114    
     89000   44.5           5079.0449     -9025.1185      2625.4158      993150.98      36772.387      11.478966      243.78941    
     90000   45             5045.1879     -8862.2546      2607.9147      1027807.3      36450.984      11.580181      244.65422    
     91000   45.5           4968.358      -8983.3965      2568.2005      993963.27      36780.214      11.476524      248.06283    
     92000   46             4991.3014     -9025.3387      2580.0602      991340.56      36764.984      11.481278      249.96654    
     93000   46.5           5014.3763     -8888.6799      2591.9879      1023827        36483.434      11.569881      250.7314     
     94000   47             5042.374      -8982.4343      2606.4602      998386.06      36733.814      11.49102       253.89366    
     95000   47.5           5007.2432     -9067.8449      2588.3007      987437.34      36784.035      11.475331      255.79094    
     96000   48             4839.2039     -8920.0538      2501.4393      1016047.2      36513.113      11.560477      256.96342    
     97000   48.5           5040.6918     -8961.3134      2605.5907      1007934.3      36632.481      11.522807      259.70483    
     98000   49             4974.9738     -9053.0337      2571.6203      980496.33      36887.683      11.443088      262.3706     
     99000   49.5           5025.9313     -9007.004       2597.9608      994900.22      36746.598      11.487022      263.74689    
    100000   50             4962.5041     -8922.9117      2565.1745      1004213.4      36718.987      11.49566       265.27526    
    101000   50.5           5013.2146     -9013.5416      2591.3874      991933.29      36776.17       11.477786      266.96997    
    102000   51             5079.9541     -8971.433       2625.8858      1007805.6      36625.248      11.525082      268.15092    
    103000   51.5           5051.2239     -8917.7814      2611.0348      1012235.5      36622.587      11.52592       270.36165    
    104000   52             5048.8278     -9048.0168      2609.7962      985906.89      36827.457      11.461801      273.00174    
    105000   52.5           5035.5945     -9022.6569      2602.9558      995468.48      36728.385      11.492719      274.09467    
    106000   53             5007.8329     -8903.0561      2588.6055      1019054.4      36525.166      11.556662      275.04656    
    107000   53.5           5044.0037     -9036.8463      2607.3026      989616.38      36796.649      11.471398      278.16989    
    108000   54             5025.8095     -8970.944       2597.8978      997887.16      36750.313      11.485861      280.24412    
    109000   54.5           5089.7788     -8963.3809      2630.9643      1004151.1      36680.831      11.507618      282.32717    
    110000   55             4998.5165     -9100.7226      2583.7898      976346.78      36908.324      11.436688      284.90179    
Loop time of 194.403 on 8 procs for 100000 steps with 4000 atoms

Performance: 22.222 ns/day, 1.080 hours/ns, 514.395 timesteps/s, 2.058 Matom-step/s
169.3% CPU use with 8 MPI tasks x 1 OpenMP threads

MPI task timing breakdown:
Section |  min time  |  avg time  |  max time  |%varavg| %total
---------------------------------------------------------------
Pair    | 117.11     | 117.26     | 117.46     |   1.1 | 60.32
Neigh   | 0.78582    | 0.79446    | 0.80719    |   0.8 |  0.41
Comm    | 37.964     | 38.047     | 38.183     |   1.2 | 19.57
Output  | 1.4537     | 1.4544     | 1.456      |   0.1 |  0.75
Modify  | 30.799     | 30.922     | 31.055     |   1.6 | 15.91
Other   |            | 5.923      |            |       |  3.05

Nlocal:            500 ave         510 max         493 min
Histogram: 3 0 1 0 1 0 0 2 0 1
Nghost:           2589 ave        2603 max        2569 min
Histogram: 1 0 0 0 2 1 1 1 1 1
Neighs:        38000.9 ave       39082 max       37106 min
Histogram: 1 1 1 0 2 0 2 0 0 1

Total # of neighbors = 304007
Ave neighs/atom = 76.00175
Neighbor list builds = 1597
Dangerous builds = 0
Total wall time: 0:03:35
