LAMMPS (2 Apr 2025)
KOKKOS mode with Kokkos version 4.6.0 is enabled (src/KOKKOS/kokkos.cpp:72)
  will use up to 1 GPU(s) per node
  using 1 OpenMP thread(s) per MPI task
Lattice spacing in x,y,z = 3.615 3.615 3.615
Created orthogonal box = (0 0 0) to (36.15 36.15 36.15)
  2 by 2 by 2 MPI processor grid
Created 4000 atoms
  using lattice units in orthogonal box = (0 0 0) to (36.15 36.15 36.15)
  create_atoms CPU = 0.007 seconds
Reading eam potential file Cu_u3.eam with DATE: 2007-06-11
Neighbor list info ...
  update: every = 1 steps, delay = 0 steps, check = yes
  max neighbors/atom: 2000, page size: 100000
  master list distance cutoff = 6.95
  ghost atom cutoff = 6.95
  binsize = 6.95, bins = 6 6 6
  1 neighbor lists, perpetual/occasional/extra = 1 0 0
  (1) pair eam/kk, perpetual
      attributes: half, newton on, kokkos_device
      pair build: half/bin/newton/kk/device
      stencil: half/bin/3d
      bin: kk/device
Setting up Verlet run ...
  Unit style    : metal
  Current step  : 0
  Time step     : 0.0005
WARNING: Fix STORE/ATOM not compatible with sending data in Kokkos communication (src/KOKKOS/comm_kokkos.cpp:766)
WARNING: Fix with atom-based arrays not compatible with sending data in Kokkos communication, switching to classic exchange/border communication (src/KOKKOS/comm_kokkos.cpp:779)
WARNING: Fix STORE/ATOM not compatible with Kokkos sorting on device (src/KOKKOS/atom_kokkos.cpp:212)
WARNING: Fix with atom-based arrays not compatible with Kokkos sorting on device, switching to classic host sorting (src/KOKKOS/atom_kokkos.cpp:218)
Per MPI rank memory allocation (min/avg/max) = 4.315 | 4.315 | 4.315 Mbytes
   Step          Time           Temp          PotEng         KinEng         Press          Volume        Density        c_Msd[4]   
         0   0              12000         -14160          6202.9358      140246.29      47241.633      8.9351058      0            
      1000   0.5            11863.563     -7545.1953      6132.4101      1000553.4      40468.292      10.430611      7.9707649    
      2000   1              11918.847     -7502.1359      6160.9867      1005824.4      40443.798      10.436928      17.295869    
      3000   1.5            11859.668     -7655.8049      6130.3967      987899.31      40524.837      10.416057      26.149869    
      4000   2              12032.067     -7576.6834      6219.5115      1014215.4      40190.651      10.502666      35.247111    
      5000   2.5            11876.904     -7585.85        6139.3062      999712.65      40431.856      10.44001       44.323839    
      6000   3              12048.963     -7561.4502      6228.2454      987115.81      40766.605      10.354284      53.819899    
      7000   3.5            11984.131     -7437.6363      6194.733       1024985.8      40200.767      10.500024      63.091689    
      8000   4              12058.171     -7618.9161      6233.0048      986399.56      40673.412      10.378008      72.062867    
      9000   4.5            12301.354     -7530.6352      6358.7091      1007341.7      40494.256      10.423923      80.952151    
     10000   5              12253.8       -7557.5255      6334.1277      987107.56      40816.578      10.341607      90.008037    
Loop time of 19.2103 on 8 procs for 10000 steps with 4000 atoms

Performance: 22.488 ns/day, 1.067 hours/ns, 520.555 timesteps/s, 2.082 Matom-step/s
171.1% CPU use with 8 MPI tasks x 1 OpenMP threads

MPI task timing breakdown:
Section |  min time  |  avg time  |  max time  |%varavg| %total
---------------------------------------------------------------
Pair    | 11.506     | 11.527     | 11.558     |   0.5 | 60.01
Neigh   | 0.1292     | 0.13165    | 0.14364    |   1.3 |  0.69
Comm    | 3.8078     | 3.8278     | 3.8491     |   0.7 | 19.93
Output  | 0.00098945 | 0.0010471  | 0.0011481  |   0.2 |  0.01
Modify  | 3.0947     | 3.1078     | 3.127      |   0.6 | 16.18
Other   |            | 0.6148     |            |       |  3.20

Nlocal:            500 ave         510 max         494 min
Histogram: 2 2 1 0 0 0 2 0 0 1
Nghost:        2435.75 ave        2446 max        2432 min
Histogram: 3 1 2 1 0 0 0 0 0 1
Neighs:        34210.8 ave       35046 max       33627 min
Histogram: 2 0 2 1 0 0 1 0 1 1

Total # of neighbors = 273686
Ave neighs/atom = 68.4215
Neighbor list builds = 264
Dangerous builds = 0
Setting up Verlet run ...
  Unit style    : metal
  Current step  : 10000
  Time step     : 0.0005
WARNING: Fix STORE/ATOM not compatible with Kokkos sorting on device (src/KOKKOS/atom_kokkos.cpp:212)
WARNING: Fix with atom-based arrays not compatible with Kokkos sorting on device, switching to classic host sorting (src/KOKKOS/atom_kokkos.cpp:218)
Per MPI rank memory allocation (min/avg/max) = 5.509 | 5.509 | 5.509 Mbytes
   Step          Time           Temp          PotEng         KinEng         Press          Volume        Density        c_Msd[4]   
     10000   5              12253.8       -7557.5255      6334.1277      987107.56      40816.578      10.341607      90.008037    
     11000   5.5            6416.195      -8575.7835      3316.6038      998873.74      37605.965      11.224522      91.689699    
     12000   6              6039.0799     -8709.7473      3121.6688      1003794.8      37238.637      11.335243      94.61882     
     13000   6.5            5833.4271     -8789.4396      3015.3645      988416.65      37339.425      11.304646      97.407502    
     14000   7              6015.8698     -8796.4273      3109.6712      987899.08      37395.947      11.28756       99.770235    
     15000   7.5            6091.2202     -8650.6284      3148.6207      1016936.3      37148.741      11.362673      102.46026    
     16000   8              6106.344      -8737.6469      3156.4384      995508.08      37360.202      11.29836       106.45369    
     17000   8.5            6000.1632     -8820.9116      3101.5523      982441.42      37430.973      11.276998      109.33919    
     18000   9              5953.1171     -8669.3324      3077.2336      1011982.8      37155.732      11.360535      112.28425    
     19000   9.5            6028.3516     -8665.25        3116.1232      1000138        37381.203      11.292012      115.39955    
     20000   10             6007.9177     -8831.9148      3105.5607      980672.28      37445.332      11.272673      118.79112    
     21000   10.5           5931.7171     -8692.7631      3066.1717      1000248.6      37328.18       11.308052      121.02767    
     22000   11             6059.8447     -8647.3272      3132.4023      1014536.1      37182.927      11.352226      123.15874    
     23000   11.5           5952.8377     -8664.2062      3077.0892      1012376.1      37176.889      11.35407       126.29911    
     24000   12             5977.1004     -8746.2464      3089.6309      990328.65      37413.235      11.282344      128.80329    
     25000   12.5           6058.9407     -8607.6034      3131.935       1016063.5      37215.241      11.342369      131.30246    
     26000   13             5956.3819     -8642.6701      3078.9213      1010481.9      37231.942      11.337281      134.66296    
     27000   13.5           5929.7031     -8839.9137      3065.1306      980647.62      37421.595      11.279824      138.14879    
     28000   14             5867.5271     -8651.5653      3032.9912      1008975.4      37213.864      11.342789      140.59119    
     29000   14.5           6012.6499     -8693.4172      3108.0068      1006351.6      37243.064      11.333895      143.72662    
     30000   15             6013.5261     -8697.438       3108.4597      1003833.6      37274.196      11.324429      145.88541    
     31000   15.5           6130.3541     -8766.6442      3168.8494      987523.31      37443.856      11.273118      149.19655    
     32000   16             6156.8716     -8707.2909      3182.5566      1007360.3      37237.007      11.335739      151.96765    
     33000   16.5           5943.2927     -8650.6699      3072.1553      1009558.5      37239.04       11.33512       155.33956    
     34000   17             6058.7604     -8721.4458      3131.8418      995064.25      37397.271      11.28716       158.63539    
     35000   17.5           6049.1664     -8738.583       3126.8826      994858.15      37371.499      11.294944      161.34091    
     36000   18             5918.4544     -8661.5775      3059.3161      1015535.9      37109.468      11.374698      163.09807    
     37000   18.5           6103.707      -8709.8415      3155.0753      1006143.3      37233.714      11.336742      166.94518    
     38000   19             6066.9608     -8731.7778      3136.0807      995008.97      37376.592      11.293405      170.43874    
     39000   19.5           6060.1637     -8708.6746      3132.5672      1001974.3      37300.891      11.316325      173.33407    
     40000   20             5989.9337     -8792.718       3096.2645      983069.19      37463.829      11.267108      176.06188    
     41000   20.5           6130.2627     -8584.9957      3168.8022      1024568.4      37133.73       11.367266      178.07513    
     42000   21             6125.1081     -8701.0045      3166.1377      1004524.8      37278.8        11.323031      180.6635     
     43000   21.5           6050.8078     -8815.2743      3127.731       979769.97      37505.711      11.254526      183.36127    
     44000   22             6045.6255     -8707.0629      3125.0523      1005191.2      37250.112      11.331751      185.14328    
     45000   22.5           6009.3477     -8661.5678      3106.2998      1010950.4      37208.708      11.34436       187.69953    
     46000   23             6047.8283     -8676.2431      3126.1909      1003009.9      37321.169      11.310176      191.2299     
     47000   23.5           6002.8464     -8724.2494      3102.9392      996070.87      37365.132      11.296869      193.72327    
     48000   24             5934.7064     -8679.0534      3067.7169      999983.9       37356.319      11.299534      196.12728    
     49000   24.5           5907.6254     -8569.9584      3053.7184      1030509.4      37017.689      11.4029        198.05551    
     50000   25             5964.1827     -8792.582       3082.9535      995876.25      37243.064      11.333896      201.79714    
     51000   25.5           6045.825      -8782.7147      3125.1554      994294.02      37318.185      11.31108       205.0447     
     52000   26             6148.4387     -8728.0897      3178.1976      1006200.6      37232.866      11.337         207.18738    
     53000   26.5           5904.823      -8807.0939      3052.2698      978474.74      37479.305      11.262455      210.76299    
     54000   27             6029.0391     -8723.2334      3116.4785      1005824.8      37214.698      11.342535      212.41181    
     55000   27.5           5969.577      -8714.9988      3085.7419      1008900.6      37156.218      11.360386      215.51735    
     56000   28             5944.9046     -8798.7391      3072.9885      992725.78      37304.592      11.315202      218.77615    
     57000   28.5           5960.0483     -8735.0854      3080.8164      994016.77      37355.558      11.299764      222.61964    
     58000   29             6098.7063     -8678.3834      3152.4903      1014324.7      37145.698      11.363604      224.64489    
     59000   29.5           6014.1582     -8743.2761      3108.7864      1002085.4      37251.018      11.331475      227.72028    
     60000   30             6029.1025     -8637.078       3116.5113      1019280.2      37115.896      11.372728      229.69199    
     61000   30.5           5966.3688     -8808.1183      3084.0836      983574.19      37430.018      11.277285      232.64305    
     62000   31             6182.0573     -8739.4393      3195.5754      999203.9       37319.515      11.310677      235.25501    
     63000   31.5           6002.6693     -8573.0841      3102.8477      1028662.7      37048.851      11.393309      237.24027    
     64000   32             5861.2253     -8779.0405      3029.7337      988981.76      37363.132      11.297473      240.42055    
     65000   32.5           5902.2752     -8814.3397      3050.9529      989121.13      37300.478      11.31645       243.32319    
     66000   33             6011.2901     -8574.9277      3107.3039      1025887.3      37095.234      11.379063      244.47871    
     67000   33.5           6043.9424     -8735.4034      3124.1822      995169.32      37354.07       11.300214      248.45583    
     68000   34             6262.7066     -8611.6221      3237.264       1028499.9      37066.065      11.388017      249.89896    
     69000   34.5           5941.006      -8715.7277      3070.9732      1001688.3      37246.802      11.332758      253.62486    
     70000   35             5994.2961     -8824.339       3098.5195      985513.65      37386.39       11.290445      257.4688     
     71000   35.5           6026.2087     -8746.9986      3115.0155      997093.83      37297.764      11.317274      259.71031    
     72000   36             5996.0625     -8744.0268      3099.4326      995008.26      37346.697      11.302445      262.38871    
     73000   36.5           5972.8747     -8638.9147      3087.4465      1015595.1      37163.611      11.358126      264.74846    
     74000   37             6057.6355     -8803.9085      3131.2604      990091.6       37360.782      11.298184      269.29955    
     75000   37.5           5997.2803     -8740.2512      3100.0621      999434.18      37287.867      11.320277      271.24545    
     76000   38             6041.7101     -8735.0493      3123.0283      996134.99      37344.404      11.303139      274.27586    
     77000   38.5           5993.6363     -8785.8591      3098.1785      987494.76      37403.375      11.285318      278.77792    
     78000   39             5972.5417     -8672.1139      3087.2744      1013367.3      37150.825      11.362035      281.10097    
     79000   39.5           6046.6157     -8894.7073      3125.5641      967236.12      37591.2        11.228931      286.17224    
     80000   40             5931.8741     -8710.3663      3066.2529      998634.38      37309.148      11.31382       287.95247    
     81000   40.5           5983.3323     -8718.3916      3092.8522      1006094.7      37220.629      11.340727      290.70441    
     82000   41             6130.009      -8689.4871      3168.671       1010096.5      37209.846      11.344014      293.94329    
     83000   41.5           5963.9236     -8799.7658      3082.8196      984086.33      37426.562      11.278327      298.43786    
     84000   42             5976.0181     -8712.7024      3089.0714      998301.33      37318.831      11.310885      300.47251    
     85000   42.5           6118.526      -8670.645       3162.7353      1009918.5      37241.86       11.334262      303.24158    
     86000   43             5922.566      -8800.7253      3061.4414      984867.51      37413.56       11.282246      305.44677    
     87000   43.5           5997.5308     -8803.261       3100.1915      987955.73      37366.121      11.29657       308.3408     
     88000   44             6071.353      -8712.9775      3138.3511      1008679.3      37187.246      11.350908      310.19058    
     89000   44.5           6107.9557     -8731.6434      3157.2714      1001676.6      37285.338      11.321045      313.53771    
     90000   45             6093.6796     -8782.0903      3149.892       991825.97      37360.983      11.298123      317.22545    
     91000   45.5           6088.8692     -8656.6235      3147.4054      1011011.7      37234.792      11.336413      319.42717    
     92000   46             5971.395      -8770.5239      3086.6817      996218.17      37287.825      11.32029       322.58361    
     93000   46.5           6035.3801     -8884.7947      3119.7563      966122.91      37614.969      11.221836      327.02646    
     94000   47             5968.4535     -8696.1821      3085.1612      1005062.4      37240.433      11.334696      327.24306    
     95000   47.5           5970.8909     -8591.8058      3086.4211      1020782.2      37158.189      11.359784      329.63827    
     96000   48             5958.3017     -8832.2749      3079.9136      982848.38      37391.507      11.2889        333.7099     
     97000   48.5           5933.1151     -8635.2489      3066.8944      1011867.1      37198.682      11.347418      335.01033    
     98000   49             6024.3118     -8785.919       3114.035       985938.57      37430.909      11.277017      338.35201    
     99000   49.5           6070.9862     -8793.297       3138.1615      987441.31      37401.485      11.285889      339.78368    
    100000   50             6158.0465     -8714.6711      3183.164       1005416.4      37263.034      11.327821      341.26345    
    101000   50.5           5968.1382     -8772.6624      3084.9982      991801.24      37347.2        11.302293      344.87654    
    102000   51             5988.4858     -8692.1021      3095.5161      1010385.8      37171.29       11.35578       347.96874    
    103000   51.5           6073.2681     -8729.303       3139.341       997450.11      37326.626      11.308523      351.10926    
    104000   52             5943.4923     -8819.1553      3072.2585      980428.95      37471.671      11.26475       355.66164    
    105000   52.5           6028.9557     -8640.9973      3116.4354      1011511.3      37228.562      11.33831       358.34162    
    106000   53             6099.2936     -8768.2655      3152.7939      995140.22      37320.028      11.310522      362.77429    
    107000   53.5           5970.2306     -8636.4377      3086.0798      1015218.5      37170.825      11.355922      365.1311     
    108000   54             6002.9587     -8814.8793      3102.9973      987128.93      37373.791      11.294251      369.34035    
    109000   54.5           6034.2774     -8765.0842      3119.1863      997625.55      37270.434      11.325572      370.96395    
    110000   55             6112.9063     -8778.9821      3159.8305      1000853.8      37237.538      11.335577      374.00456    
Loop time of 193.53 on 8 procs for 100000 steps with 4000 atoms

Performance: 22.322 ns/day, 1.075 hours/ns, 516.716 timesteps/s, 2.067 Matom-step/s
170.0% CPU use with 8 MPI tasks x 1 OpenMP threads

MPI task timing breakdown:
Section |  min time  |  avg time  |  max time  |%varavg| %total
---------------------------------------------------------------
Pair    | 116.61     | 116.82     | 117.07     |   1.4 | 60.36
Neigh   | 0.88384    | 0.89372    | 0.90188    |   0.7 |  0.46
Comm    | 38.184     | 38.376     | 38.517     |   1.9 | 19.83
Output  | 0.43215    | 0.43398    | 0.43551    |   0.1 |  0.22
Modify  | 30.857     | 30.986     | 31.164     |   1.9 | 16.01
Other   |            | 6.018      |            |       |  3.11

Nlocal:            500 ave         507 max         493 min
Histogram: 1 1 2 0 0 0 1 0 2 1
Nghost:           2572 ave        2577 max        2568 min
Histogram: 1 1 0 0 3 2 0 0 0 1
Neighs:          37628 ave       38842 max       36899 min
Histogram: 3 0 1 0 2 0 1 0 0 1

Total # of neighbors = 301024
Ave neighs/atom = 75.256
Neighbor list builds = 1793
Dangerous builds = 0
Total wall time: 0:03:34
