LAMMPS (2 Apr 2025)
KOKKOS mode with Kokkos version 4.6.0 is enabled (src/KOKKOS/kokkos.cpp:72)
  will use up to 1 GPU(s) per node
  using 1 OpenMP thread(s) per MPI task
Lattice spacing in x,y,z = 3.615 3.615 3.615
Created orthogonal box = (0 0 0) to (36.15 36.15 36.15)
  2 by 2 by 2 MPI processor grid
Created 4000 atoms
  using lattice units in orthogonal box = (0 0 0) to (36.15 36.15 36.15)
  create_atoms CPU = 0.007 seconds
Reading eam potential file Cu_u3.eam with DATE: 2007-06-11
Neighbor list info ...
  update: every = 1 steps, delay = 0 steps, check = yes
  max neighbors/atom: 2000, page size: 100000
  master list distance cutoff = 6.95
  ghost atom cutoff = 6.95
  binsize = 6.95, bins = 6 6 6
  1 neighbor lists, perpetual/occasional/extra = 1 0 0
  (1) pair eam/kk, perpetual
      attributes: half, newton on, kokkos_device
      pair build: half/bin/newton/kk/device
      stencil: half/bin/3d
      bin: kk/device
Setting up Verlet run ...
  Unit style    : metal
  Current step  : 0
  Time step     : 0.0005
WARNING: Fix STORE/ATOM not compatible with sending data in Kokkos communication (src/KOKKOS/comm_kokkos.cpp:766)
WARNING: Fix with atom-based arrays not compatible with sending data in Kokkos communication, switching to classic exchange/border communication (src/KOKKOS/comm_kokkos.cpp:779)
WARNING: Fix STORE/ATOM not compatible with Kokkos sorting on device (src/KOKKOS/atom_kokkos.cpp:212)
WARNING: Fix with atom-based arrays not compatible with Kokkos sorting on device, switching to classic host sorting (src/KOKKOS/atom_kokkos.cpp:218)
Per MPI rank memory allocation (min/avg/max) = 4.315 | 4.315 | 4.315 Mbytes
   Step          Time           Temp          PotEng         KinEng         Press          Volume        Density        c_Msd[4]   
         0   0              12000         -14160          6202.9358      140246.29      47241.633      8.9351058      0            
      1000   0.5            11863.563     -7545.1953      6132.4101      1000553.4      40468.292      10.430611      7.9707649    
      2000   1              11918.847     -7502.1359      6160.9867      1005824.4      40443.798      10.436928      17.295869    
      3000   1.5            11783.96      -7589.3398      6091.2621      991067.06      40520.012      10.417297      26.146378    
      4000   2              12087.146     -7530.3401      6247.9828      1007536.5      40389.442      10.450974      34.919603    
      5000   2.5            11893.504     -7586.6931      6147.8869      997871.09      40467.989      10.430689      43.881529    
      6000   3              11949.64      -7583.5044      6176.9044      998266.23      40466.432      10.43109       53.32165     
      7000   3.5            12254.91      -7541.8805      6334.7015      1013821.5      40283.071      10.47857       62.416559    
      8000   4              11821.192     -7661.0613      6110.5078      989750.28      40527.521      10.415367      71.853822    
      9000   4.5            12164.813     -7510.6846      6288.1296      1012619.4      40392.41       10.450206      80.525766    
     10000   5              12145         -7588.4719      6277.8879      997616.98      40554.21       10.408512      89.797418    
Loop time of 19.1418 on 8 procs for 10000 steps with 4000 atoms

Performance: 22.568 ns/day, 1.063 hours/ns, 522.418 timesteps/s, 2.090 Matom-step/s
171.1% CPU use with 8 MPI tasks x 1 OpenMP threads

MPI task timing breakdown:
Section |  min time  |  avg time  |  max time  |%varavg| %total
---------------------------------------------------------------
Pair    | 11.506     | 11.522     | 11.537     |   0.3 | 60.19
Neigh   | 0.12885    | 0.13089    | 0.13834    |   0.8 |  0.68
Comm    | 3.7631     | 3.7751     | 3.8033     |   0.6 | 19.72
Output  | 0.00099734 | 0.0010692  | 0.0011171  |   0.1 |  0.01
Modify  | 3.085      | 3.1017     | 3.1189     |   0.7 | 16.20
Other   |            | 0.6114     |            |       |  3.19

Nlocal:            500 ave         512 max         493 min
Histogram: 1 1 1 2 2 0 0 0 0 1
Nghost:        2465.88 ave        2474 max        2452 min
Histogram: 1 1 1 0 0 0 0 1 0 4
Neighs:        34457.1 ave       35198 max       33323 min
Histogram: 1 0 0 0 1 2 2 0 1 1

Total # of neighbors = 275657
Ave neighs/atom = 68.91425
Neighbor list builds = 265
Dangerous builds = 0
Setting up Verlet run ...
  Unit style    : metal
  Current step  : 10000
  Time step     : 0.0005
WARNING: Fix STORE/ATOM not compatible with Kokkos sorting on device (src/KOKKOS/atom_kokkos.cpp:212)
WARNING: Fix with atom-based arrays not compatible with Kokkos sorting on device, switching to classic host sorting (src/KOKKOS/atom_kokkos.cpp:218)
Per MPI rank memory allocation (min/avg/max) = 5.509 | 5.509 | 5.509 Mbytes
   Step          Time           Temp          PotEng         KinEng         Press          Volume        Density        c_Msd[4]   
     10000   5              12145         -7588.4719      6277.8879      997616.98      40554.21       10.408512      89.797418    
     11000   5.5            7002.0945     -8419.91        3619.4619      1002758.6      37919.865      11.131606      92.101082    
     12000   6              7166.1863     -8504.2091      3704.2828      1004546.4      37824.798      11.159584      95.50022     
     13000   6.5            6990.2256     -8569.9929      3613.3267      984489.43      37992.742      11.110254      100.15966    
     14000   7              6914.0531     -8465.4713      3573.9523      1006712.8      37772.166      11.175133      103.48555    
     15000   7.5            7002.7722     -8551.3937      3619.8122      990467.59      37939.924      11.125721      108.13053    
     16000   8              6973.7268     -8487.255       3604.7983      999866.35      37867.817      11.146906      111.56544    
     17000   8.5            6969.7906     -8358.1612      3602.7637      1025997.9      37629.772      11.217421      115.68739    
     18000   9              6996.7876     -8443.7744      3616.7187      1001795.7      37884.489      11.142001      120.1954     
     19000   9.5            7044.713      -8606.9422      3641.4919      989451.76      37887.027      11.141254      124.29402    
     20000   10             6948.7593     -8322.3324      3591.8923      1031079.8      37561.194      11.237901      126.75661    
     21000   10.5           7076.108      -8535.5685      3657.7203      989327.82      37985.967      11.112235      129.88595    
     22000   11             7065.05       -8472.6074      3652.0043      1006270.8      37767.13       11.176624      132.67242    
     23000   11.5           6913.81       -8508.7328      3573.8267      998772.4       37850.86       11.1519        136.67275    
     24000   12             7144.0754     -8626.3105      3692.8534      983077.53      37980.508      11.113832      140.27765    
     25000   12.5           7055.1674     -8381.3326      3646.8959      1019144.1      37736.726      11.185628      144.26533    
     26000   13             7006.1657     -8597.7283      3621.5664      985788.69      37963.634      11.118772      148.56902    
     27000   13.5           7074.4601     -8587.1564      3656.8685      991429.99      37886.971      11.14127       152.37468    
     28000   14             7028.8306     -8413.8772      3633.2821      1015964.7      37713.943      11.192386      155.79727    
     29000   14.5           6992.9991     -8616.4388      3614.7604      975156.46      38093.011      11.081009      161.41433    
     30000   15             6926.246      -8452.2435      3580.255       999110.61      37911.025      11.134202      164.47499    
     31000   15.5           7026.7405     -8434.7445      3632.2017      1014753.7      37706.88       11.194482      167.72067    
     32000   16             6937.8996     -8580.7452      3586.2788      984313.1       37977.78       11.11463       171.55197    
     33000   16.5           6899.0988     -8440.2241      3566.2223      1006956.5      37788.559      11.170285      174.05919    
     34000   17             7113.2832     -8403.1995      3676.9366      1009773.6      37861.333      11.148815      177.64253    
     35000   17.5           6904.2644     -8471.2431      3568.8924      995202.58      37937.6        11.126402      181.68096    
     36000   18             6953.3856     -8578.4639      3594.2837      989909.26      37904.684      11.136064      186.48782    
     37000   18.5           7019.5729     -8525.3043      3628.4967      1003356.2      37755.554      11.18005       190.46007    
     38000   19             7043.7636     -8502.8063      3641.0011      994631.26      37952.746      11.121962      194.62322    
     39000   19.5           6920.4682     -8480.1729      3577.2684      1002668.5      37799.303      11.16711       197.51204    
     40000   20             6851.111      -8485.777       3541.4168      1000357.2      37848.426      11.152617      201.42578    
     41000   20.5           7086.071      -8518.6072      3662.8703      1001723.2      37800.171      11.166854      205.14313    
     42000   21             7047.3929     -8536.8818      3642.8772      989251.99      37984.391      11.112696      209.22994    
     43000   21.5           6912.039      -8477.9567      3572.9112      999159.27      37877.092      11.144176      212.94711    
     44000   22             7062.3717     -8569.0293      3650.6199      999538.51      37793.196      11.168915      216.76527    
     45000   22.5           7062.4792     -8523.2422      3650.6755      993834.24      37920.666      11.131371      222.24552    
     46000   23             7076.562      -8403.8717      3657.955       1017009.3      37719.547      11.190723      225.65525    
     47000   23.5           7179.0673     -8446.4137      3710.9411      1003685.1      37905.46       11.135836      230.16477    
     48000   24             7045.3757     -8501.7472      3641.8345      999550.78      37870.735      11.146047      233.3702     
     49000   24.5           6996.3056     -8422.9737      3616.4696      1007121        37827.473      11.158794      237.06162    
     50000   25             6876.4254     -8528.7207      3554.5021      991862.1       37888.97       11.140683      240.71474    
     51000   25.5           7009.258      -8484.8358      3623.1648      1013402.3      37661.727      11.207903      243.01955    
     52000   26             7142.651      -8510.1748      3692.1171      996293.6       37929.508      11.128776      248.08646    
     53000   26.5           6818.36       -8495.8362      3524.4875      987418.82      38006.998      11.106086      251.70446    
     54000   27             6971.3019     -8504.4778      3603.5448      1004148.3      37770.958      11.175491      255.35467    
     55000   27.5           6938.4502     -8469.9085      3586.5635      995505.25      37954.348      11.121493      260.05832    
     56000   28             6899.7266     -8600.7784      3566.5468      982657.81      37955.226      11.121235      262.95494    
     57000   28.5           6822.6147     -8391.537       3526.6868      1021584.7      37601.858      11.225748      264.39575    
     58000   29             6878.2957     -8400.5274      3555.4689      1007159.5      37858.201      11.149737      269.18065    
     59000   29.5           6967.8939     -8504.4249      3601.7832      1006709        37717.947      11.191198      272.58098    
     60000   30             7101.2673     -8665.6844      3670.7255      972163.08      38110.21       11.076008      277.39101    
     61000   30.5           7035.7505     -8494.0852      3636.8591      1006137.8      37761.424      11.178312      280.06126    
     62000   31             7009.3266     -8476.4534      3623.2003      1007458        37775.374      11.174184      283.23506    
     63000   31.5           6989.2535     -8755.687       3612.8242      957937.46      38162.702      11.060773      288.31934    
     64000   32             7135.7311     -8449.6376      3688.5402      1007080.5      37834.726      11.156655      289.90095    
     65000   32.5           6981.675      -8481.6079      3608.9068      995605.73      37944.122      11.12449       294.13185    
     66000   33             6887.0673     -8436.9854      3560.003       1011325.9      37736.902      11.185576      296.13484    
     67000   33.5           7033.6769     -8455.4834      3635.7872      1007859        37768.526      11.17621       299.91524    
     68000   34             6932.0852     -8466.322       3583.2733      999967.65      37859.314      11.14941       305.3139     
     69000   34.5           6891.1987     -8514.8483      3562.1386      991853.26      37934.921      11.127188      308.89791    
     70000   35             6942.9716     -8489.7084      3588.9006      1010095.2      37686.772      11.200455      312.04991    
     71000   35.5           6933.7264     -8450.2162      3584.1217      995143.42      37970.284      11.116825      316.89679    
     72000   36             7133.8979     -8515.7524      3687.5926      997901.66      37904.709      11.136057      320.18661    
     73000   36.5           7160.6608     -8545.5198      3701.4266      995877.69      37884.717      11.141933      323.4838     
     74000   37             6778.3282     -8573.9468      3503.7946      984963.94      37916.411      11.13262       327.51605    
     75000   37.5           7105.5816     -8383.109       3672.9556      1024176.8      37641.137      11.214034      329.0517     
     76000   38             7025.4817     -8469.1882      3631.551       992381.42      38007.866      11.105832      335.54493    
     77000   38.5           7072.5073     -8451.5031      3655.8591      1008923.1      37813.048      11.163051      338.54955    
     78000   39             6950.1952     -8515.779       3592.6346      994560.19      37894.663      11.139009      342.82138    
     79000   39.5           7028.925      -8485.1575      3633.3309      994848.84      37957.045      11.120702      347.05322    
     80000   40             7140.1464     -8393.4132      3690.8225      1025673.5      37626.94       11.218265      349.34947    
     81000   40.5           7047.9268     -8479.8692      3643.1531      997890.97      37919.613      11.13168       354.73004    
     82000   41             6812.1792     -8518.8696      3521.2925      987484.82      37955.647      11.121112      359.32276    
     83000   41.5           7183.822      -8470.022       3713.3989      1017922.4      37648.646      11.211798      360.48657    
     84000   42             6933.7806     -8494.5982      3584.1497      1003616.5      37798.378      11.167384      364.98279    
     85000   42.5           7295.1962     -8531.2562      3770.9695      996320.59      37936.516      11.12672       369.09598    
     86000   43             6972.8385     -8586.7966      3604.3392      981994.85      38009.751      11.105282      373.1536     
     87000   43.5           6905.3492     -8459.9923      3569.4531      1003750.8      37827.004      11.158933      375.68482    
     88000   44             7069.2059     -8427.1008      3654.1525      1012839.7      37761.087      11.178412      378.42269    
     89000   44.5           6950.2166     -8652.8449      3592.6456      967424.92      38154.348      11.063195      384.80872    
     90000   45             7064.4249     -8487.8562      3651.6812      1005142.3      37797.887      11.167529      386.81718    
     91000   45.5           6996.9673     -8479.7655      3616.8116      1002780.6      37831.379      11.157642      391.58013    
     92000   46             7106.4173     -8484.3981      3673.3876      1005302.5      37795.494      11.168236      394.95076    
     93000   46.5           6831.6762     -8463.7336      3531.3707      1001554        37821.157      11.160658      399.32808    
     94000   47             6926.7188     -8573.8108      3580.4994      981624.63      38035.727      11.097698      402.60769    
     95000   47.5           7044.3886     -8485.7366      3641.3242      1002490        37857.372      11.149981      404.60929    
     96000   48             6995.3444     -8516.8945      3615.9727      998768.45      37848.275      11.152661      408.00043    
     97000   48.5           7016.3897     -8513.4447      3626.8513      994477.36      37920.9        11.131302      412.17694    
     98000   49             7041.4939     -8593.8619      3639.8279      982158.11      38019.16       11.102533      416.45498    
     99000   49.5           7059.6011     -8360.6595      3649.1877      1028171.3      37601.573      11.225833      417.28781    
    100000   50             7035.6424     -8452.9142      3636.8032      1003856.4      37858.156      11.14975       422.10817    
    101000   50.5           7002.1483     -8522.4301      3619.4897      994169.69      37905.907      11.135705      426.34463    
    102000   51             6910.9294     -8312.6529      3572.3377      1030711        37584.222      11.231016      426.90292    
    103000   51.5           7161.9503     -8493.6521      3702.0932      997759.42      37941.193      11.125349      431.96276    
    104000   52             6963.094      -8559.7238      3599.3021      992118.53      37886.164      11.141508      436.61941    
    105000   52.5           7035.062      -8420.9476      3636.5032      1023994.9      37594.201      11.228035      438.21807    
    106000   53             7055.3035     -8573.9457      3646.9662      994726.78      37854.7        11.150768      444.5877     
    107000   53.5           7024.4175     -8575.9186      3631.0009      987191.03      37959.45       11.119998      449.70088    
    108000   54             6961.4237     -8553.2073      3598.4387      990564.04      37936.63       11.126687      452.83261    
    109000   54.5           7189.8731     -8505.3093      3716.5268      1002419.4      37865.359      11.14763       456.12575    
    110000   55             7069.1665     -8434.0794      3654.1322      1009334.1      37812.354      11.163256      459.60482    
Loop time of 199.971 on 8 procs for 100000 steps with 4000 atoms

Performance: 21.603 ns/day, 1.111 hours/ns, 500.072 timesteps/s, 2.000 Matom-step/s
169.4% CPU use with 8 MPI tasks x 1 OpenMP threads

MPI task timing breakdown:
Section |  min time  |  avg time  |  max time  |%varavg| %total
---------------------------------------------------------------
Pair    | 116.81     | 117.12     | 117.48     |   2.0 | 58.57
Neigh   | 0.96143    | 0.97567    | 1.0037     |   1.2 |  0.49
Comm    | 38.627     | 39.217     | 39.78      |   5.9 | 19.61
Output  | 1.3423     | 1.6479     | 3.7785     |  62.7 |  0.82
Modify  | 32.185     | 34.279     | 34.956     |  15.1 | 17.14
Other   |            | 6.733      |            |       |  3.37

Nlocal:            500 ave         507 max         491 min
Histogram: 1 1 0 1 0 0 2 1 0 2
Nghost:        2573.62 ave        2585 max        2566 min
Histogram: 2 1 1 1 0 1 0 0 1 1
Neighs:        37002.9 ave       37676 max       36024 min
Histogram: 1 0 1 0 1 0 2 1 0 2

Total # of neighbors = 296023
Ave neighs/atom = 74.00575
Neighbor list builds = 1961
Dangerous builds = 0
Total wall time: 0:03:41
