LAMMPS (2 Apr 2025)
KOKKOS mode with Kokkos version 4.6.0 is enabled (src/KOKKOS/kokkos.cpp:72)
  will use up to 1 GPU(s) per node
  using 1 OpenMP thread(s) per MPI task
Lattice spacing in x,y,z = 3.615 3.615 3.615
Created orthogonal box = (0 0 0) to (36.15 36.15 36.15)
  2 by 2 by 2 MPI processor grid
Created 4000 atoms
  using lattice units in orthogonal box = (0 0 0) to (36.15 36.15 36.15)
  create_atoms CPU = 0.007 seconds
Reading eam potential file Cu_u3.eam with DATE: 2007-06-11
Neighbor list info ...
  update: every = 1 steps, delay = 0 steps, check = yes
  max neighbors/atom: 2000, page size: 100000
  master list distance cutoff = 6.95
  ghost atom cutoff = 6.95
  binsize = 6.95, bins = 6 6 6
  1 neighbor lists, perpetual/occasional/extra = 1 0 0
  (1) pair eam/kk, perpetual
      attributes: half, newton on, kokkos_device
      pair build: half/bin/newton/kk/device
      stencil: half/bin/3d
      bin: kk/device
Setting up Verlet run ...
  Unit style    : metal
  Current step  : 0
  Time step     : 0.0005
WARNING: Fix STORE/ATOM not compatible with sending data in Kokkos communication (src/KOKKOS/comm_kokkos.cpp:766)
WARNING: Fix with atom-based arrays not compatible with sending data in Kokkos communication, switching to classic exchange/border communication (src/KOKKOS/comm_kokkos.cpp:779)
WARNING: Fix STORE/ATOM not compatible with Kokkos sorting on device (src/KOKKOS/atom_kokkos.cpp:212)
WARNING: Fix with atom-based arrays not compatible with Kokkos sorting on device, switching to classic host sorting (src/KOKKOS/atom_kokkos.cpp:218)
Per MPI rank memory allocation (min/avg/max) = 4.315 | 4.315 | 4.315 Mbytes
   Step          Time           Temp          PotEng         KinEng         Press          Volume        Density        c_Msd[4]   
         0   0              12000         -14160          6202.9358      140246.29      47241.633      8.9351058      0            
      1000   0.5            11863.563     -7545.1953      6132.4101      1000553.4      40468.292      10.430611      7.9707649    
      2000   1              11918.847     -7502.1359      6160.9867      1005824.4      40443.798      10.436928      17.295869    
      3000   1.5            11783.125     -7589.3033      6090.8305      990917.76      40520.05       10.417287      26.146827    
      4000   2              11880.231     -7617.5336      6141.0258      991068.32      40524.143      10.416235      35.296192    
      5000   2.5            12046.888     -7449.4408      6227.1726      1029007.4      40121.503      10.520767      43.915059    
      6000   3              12135.695     -7621.2196      6273.0779      992096.67      40589.663      10.399421      53.600777    
      7000   3.5            11837.242     -7594.0754      6118.8042      998227.86      40437.051      10.438669      61.932221    
      8000   4              12087.117     -7487.6899      6247.9677      1009120        40417.798      10.443642      71.043582    
      9000   4.5            12178.87      -7539.9243      6295.3955      1004450.4      40471.86       10.429691      79.711977    
     10000   5              12020.618     -7639.7979      6213.5935      990748.58      40552.614      10.408922      88.76916     
Loop time of 19.1937 on 8 procs for 10000 steps with 4000 atoms

Performance: 22.507 ns/day, 1.066 hours/ns, 521.004 timesteps/s, 2.084 Matom-step/s
171.0% CPU use with 8 MPI tasks x 1 OpenMP threads

MPI task timing breakdown:
Section |  min time  |  avg time  |  max time  |%varavg| %total
---------------------------------------------------------------
Pair    | 11.533     | 11.547     | 11.563     |   0.3 | 60.16
Neigh   | 0.12996    | 0.13238    | 0.13993    |   0.8 |  0.69
Comm    | 3.7933     | 3.8124     | 3.8351     |   0.7 | 19.86
Output  | 0.0009485  | 0.00097962 | 0.0010307  |   0.0 |  0.01
Modify  | 3.0741     | 3.0918     | 3.1126     |   0.7 | 16.11
Other   |            | 0.6096     |            |       |  3.18

Nlocal:            500 ave         512 max         487 min
Histogram: 2 0 0 0 1 1 2 0 1 1
Nghost:        2462.12 ave        2474 max        2446 min
Histogram: 1 0 0 0 1 3 1 0 1 1
Neighs:        34482.8 ave       35110 max       33456 min
Histogram: 2 0 0 0 0 0 2 1 0 3

Total # of neighbors = 275862
Ave neighs/atom = 68.9655
Neighbor list builds = 268
Dangerous builds = 0
Setting up Verlet run ...
  Unit style    : metal
  Current step  : 10000
  Time step     : 0.0005
WARNING: Fix STORE/ATOM not compatible with Kokkos sorting on device (src/KOKKOS/atom_kokkos.cpp:212)
WARNING: Fix with atom-based arrays not compatible with Kokkos sorting on device, switching to classic host sorting (src/KOKKOS/atom_kokkos.cpp:218)
Per MPI rank memory allocation (min/avg/max) = 5.509 | 5.509 | 5.509 Mbytes
   Step          Time           Temp          PotEng         KinEng         Press          Volume        Density        c_Msd[4]   
     10000   5              12020.618     -7639.7979      6213.5935      990748.58      40552.614      10.408922      88.76916     
     11000   5.5            8327.5744     -8277.4908      4304.6175      996838.85      38535.154      10.953868      92.903918    
     12000   6              7877.3064     -8305.2311      4071.8689      994164.23      38449.046      10.9784        98.069419    
     13000   6.5            7923.1224     -8362.2111      4095.5516      993641.85      38385.071      10.996697      103.19217    
     14000   7              8273.8857     -8198.3461      4276.8652      1028974        38095.389      11.080317      107.63115    
     15000   7.5            8244.3779     -8333.2741      4261.6123      989793.84      38562.43       10.94612       113.01841    
     16000   8              8223.6662     -8296.3558      4250.9061      995824.75      38524.468      10.956906      118.0387     
     17000   8.5            8129.4964     -8326.3116      4202.2287      1005000.5      38283.395      11.025903      122.64775    
     18000   9              7842.2741     -8438.7693      4053.7603      972003.09      38623.825      10.928721      128.30256    
     19000   9.5            8096.6466     -8266.1156      4185.2483      1001335.6      38423.188      10.985788      132.38162    
     20000   10             7982.0146     -8224.4964      4125.9937      998626.53      38507.574      10.961713      137.16102    
     21000   10.5           8151.195      -8365.3204      4213.445       982756.64      38598.715      10.93583       142.35317    
     22000   11             8149.0234     -8208.8992      4212.3224      1010545.6      38371.871      11.00048       146.07558    
     23000   11.5           7967.8838     -8241.8575      4118.6893      1004772.1      38375.286      10.999501      151.0321     
     24000   12             7969.4815     -8271.1638      4119.5152      1004372.1      38339.905      11.009652      155.81951    
     25000   12.5           7899.5368     -8446.2979      4083.36        963076.7       38770.444      10.887391      161.55369    
     26000   13             8036.4348     -8255.2897      4154.1241      997863.63      38496.106      10.964979      165.83566    
     27000   13.5           7982.3587     -8304.7855      4126.1716      995660.45      38454.019      10.97698       170.68687    
     28000   14             7987.767      -8209.0916      4128.9672      1017713.8      38200.871      11.049722      175.37854    
     29000   14.5           7890.0067     -8272.9377      4078.4338      1000477.3      38382.981      10.997296      180.4921     
     30000   15             8028.4394     -8220.5082      4149.9912      1005853.1      38406.132      10.990667      186.23072    
     31000   15.5           8075.1831     -8176.1821      4174.1536      1013828.2      38342.892      11.008794      191.13111    
     32000   16             7799.0656     -8346.8565      4031.4253      983945.73      38530.99       10.955052      196.85872    
     33000   16.5           8019.996      -8288.5729      4145.6267      997539.07      38454.869      10.976737      201.78772    
     34000   17             8086.4771     -8193.6468      4179.9915      1012747.2      38335.486      11.010921      206.80506    
     35000   17.5           7878.622      -8327.1208      4072.5489      990676.94      38458.747      10.97563       211.59503    
     36000   18             7996.0121     -8311.0059      4133.2291      1001282.5      38329.52       11.012634      216.69137    
     37000   18.5           7948.3519     -8242.737       4108.5931      1004057.1      38392.233      10.994645      222.30447    
     38000   19             8045.6082     -8374.5427      4158.866       980255.65      38626.208      10.928046      228.03521    
     39000   19.5           7775.2641     -8243.2447      4019.122       1007165.8      38282.702      11.026102      231.42705    
     40000   20             7875.5092     -8289.1645      4070.9399      998078.18      38398.006      10.992993      237.58548    
     41000   20.5           7926.2893     -8411.6234      4097.1887      982602.82      38469.192      10.97265       242.1178     
     42000   21             7894.5885     -8194.5785      4080.8022      1023573.8      38114.95       11.074631      245.08123    
     43000   21.5           7800.6601     -8198.6591      4032.2495      1002024.1      38448.134      10.97866       250.95837    
     44000   22             7878.226      -8271.7471      4072.3442      1001032.5      38382.833      10.997338      256.29427    
     45000   22.5           8163.7288     -8219.6096      4219.9239      1012818.5      38310.26       11.018171      261.58952    
     46000   23             7929.1364     -8281.1578      4098.6604      994578.71      38482.398      10.968885      266.7        
     47000   23.5           7939.1737     -8337.5169      4103.8487      993040.81      38430.487      10.983701      270.17771    
     48000   24             8205.28       -8144.209       4241.4021      1018030        38356.213      11.004971      274.68028    
     49000   24.5           7933.8852     -8308.9457      4101.1151      994986.1       38468.292      10.972907      280.5843     
     50000   25             7956.8835     -8319.2476      4113.0031      992410.46      38453.45       10.977142      284.72476    
     51000   25.5           7943.3858     -8296.4179      4106.0261      1002041.1      38333.755      11.011418      288.45648    
     52000   26             8223.4045     -8390.8167      4250.7709      990081.42      38464.936      10.973864      293.34365    
     53000   26.5           7969.5543     -8221.6213      4119.5528      1013881.6      38252.61       11.034776      296.2183     
     54000   27             8004.4924     -8307.6315      4137.6127      993805.96      38460.988      10.974991      301.25003    
     55000   27.5           8070.453      -8304.6712      4171.7085      998330.12      38398.094      10.992967      306.08718    
     56000   28             8025.2611     -8221.0134      4148.3483      1011038.5      38297.298      11.0219        310.51492    
     57000   28.5           7950.1533     -8306.9355      4109.5242      986614.84      38573.79       10.942897      316.34049    
     58000   29             8050.0482     -8164.8237      4161.1611      1019986.5      38262.566      11.031905      318.77022    
     59000   29.5           8169.1734     -8269.384       4222.7382      1004447.9      38382.96       10.997302      324.25033    
     60000   30             7954.5682     -8343.4731      4111.8063      989110.41      38498.195      10.964384      328.36052    
     61000   30.5           8058.0006     -8376.5469      4165.2717      988181.69      38505.478      10.96231       333.28464    
     62000   31             7959.9688     -8293.1446      4114.598       1009334.6      38221.704      11.043699      336.45536    
     63000   31.5           8026.9832     -8308.58        4149.2385      995601.95      38425.706      10.985068      342.38023    
     64000   32             8036.7496     -8287.0119      4154.2869      1002522.3      38374.451      10.99974       346.80915    
     65000   32.5           8044.6535     -8200.2407      4158.3725      1016847.8      38274.717      11.028403      351.11       
     66000   33             8069.4405     -8395.8415      4171.1851      975701.78      38660.339      10.918399      358.36953    
     67000   33.5           8103.3743     -8286.7542      4188.7259      1006688.9      38319.602      11.015485      361.90447    
     68000   34             8019.4985     -8215.3112      4145.3695      1006686.2      38384.538      10.99685       367.05392    
     69000   34.5           8092.1179     -8413.6134      4182.9074      978970.87      38596.943      10.936332      373.01884    
     70000   35             7915.8027     -8266.5957      4091.768       1006772.2      38296.906      11.022013      376.2219     
     71000   35.5           8121.819      -8128.8816      4198.2602      1025858.4      38229.652      11.041403      380.59643    
     72000   36             7975.1424     -8293.0305      4122.4414      997439.3       38430.708      10.983638      386.4071     
     73000   36.5           7983.1381     -8282.9633      4126.5745      1000426.1      38399.298      10.992623      390.12277    
     74000   37             7939.6411     -8338.4081      4104.0903      985999.81      38560.238      10.946742      396.76352    
     75000   37.5           7906.7647     -8225.8016      4087.0962      1022737.8      38069.359      11.087893      398.53724    
     76000   38             8042.0222     -8335.2612      4157.0123      993731.02      38444.748      10.979627      406.12409    
     77000   38.5           7995.2645     -8135.2205      4132.8427      1017762.6      38309.409      11.018416      409.07354    
     78000   39             7815.3427     -8354.3849      4039.8391      982326.79      38558.839      10.94714       415.74678    
     79000   39.5           7893.3268     -8255.3391      4080.15        1006599.4      38316.455      11.016389      419.35011    
     80000   40             7872.9383     -8168.3901      4069.6109      1024084.9      38117.968      11.073754      423.52783    
     81000   40.5           7952.5399     -8352.9782      4110.7579      988273.41      38482.246      10.968928      430.42159    
     82000   41             8005.7087     -8206.2272      4138.2415      1013957.6      38261.348      11.032256      433.81813    
     83000   41.5           8042.2256     -8251.5663      4157.1174      1001845.3      38431.924      10.983291      440.21623    
     84000   42             8049.0496     -8353.8653      4160.6448      987267.93      38539.583      10.952609      445.34719    
     85000   42.5           7964.7275     -8170.1803      4117.0578      1017433.6      38265.698      11.031002      449.46892    
     86000   43             8078.7704     -8227.114       4176.0079      1008986.6      38371.485      11.000591      454.91493    
     87000   43.5           7967.4601     -8269.0366      4118.4703      1007164.1      38320.484      11.015231      460.80484    
     88000   44             7747.6743     -8326.2093      4004.8605      996459.54      38346.425      11.00778       464.95641    
     89000   44.5           7852.2664     -8255.558       4058.9254      999792.17      38403.98       10.991283      470.25014    
     90000   45             7979.8768     -8288.1763      4124.8886      1008000        38263.506      11.031634      473.62254    
     91000   45.5           8034.4124     -8384.3334      4153.0787      983133.26      38560.183      10.946758      479.44811    
     92000   46             8074.8701     -8242.2536      4173.9917      1011623        38313.789      11.017156      483.35707    
     93000   46.5           8066.0957     -8310.235       4169.4562      1000206.6      38405.884      10.990738      487.43038    
     94000   47             8028.9732     -8253.222       4150.2671      995103.27      38550.633      10.94947       495.16005    
     95000   47.5           7903.8591     -8189.774       4085.5942      1018498.2      38210.072      11.047061      496.54694    
     96000   48             7893.1001     -8325.858       4080.0328      991029.66      38496.328      10.964916      504.22373    
     97000   48.5           7880.2285     -8260.7805      4073.3793      1000181.1      38393.684      10.99423       509.93561    
     98000   49             7747.8605     -8243.2807      4004.9568      999804.88      38387.961      10.995869      515.47845    
     99000   49.5           8065.5498     -8290.9948      4169.174       1007337.7      38254.09       11.03435       519.02114    
    100000   50             7970.5714     -8405.7084      4120.0786      977933.59      38609.761      10.932701      527.09511    
    101000   50.5           8061.8515     -8167.4674      4167.2623      1029726.8      38093.657      11.080821      525.20189    
    102000   51             8017.3247     -8332.2617      4144.2459      995585.09      38423.771      10.985621      533.18705    
    103000   51.5           8149.8593     -8323.4487      4212.7545      995527.83      38456.02       10.976409      540.09957    
    104000   52             7845.207      -8231.6043      4055.2763      998807.46      38477.572      10.970261      545.16546    
    105000   52.5           7921.9375     -8107.5712      4094.9392      1022427.3      38234.611      11.039971      547.62169    
    106000   53             8015.8465     -8310.3807      4143.4818      990447.22      38537.194      10.953288      554.58643    
    107000   53.5           8137.0083     -8373.0581      4206.1117      988348.48      38489.422      10.966883      559.39697    
    108000   54             8110.2369     -8248.6753      4192.2733      1000142.9      38469.985      10.972424      563.60223    
    109000   54.5           7873.0041     -8327.8131      4069.6449      988651.96      38481.555      10.969125      565.92343    
    110000   55             7965.6437     -8337.168       4117.5314      996214.44      38384.281      10.996923      568.1464     
Loop time of 211.716 on 8 procs for 100000 steps with 4000 atoms

Performance: 20.405 ns/day, 1.176 hours/ns, 472.330 timesteps/s, 1.889 Matom-step/s
162.8% CPU use with 8 MPI tasks x 1 OpenMP threads

MPI task timing breakdown:
Section |  min time  |  avg time  |  max time  |%varavg| %total
---------------------------------------------------------------
Pair    | 115.11     | 115.29     | 115.49     |   1.2 | 54.45
Neigh   | 1.0291     | 1.0427     | 1.0578     |   0.9 |  0.49
Comm    | 37.83      | 37.964     | 38.208     |   2.0 | 17.93
Output  | 20.612     | 20.613     | 20.616     |   0.0 |  9.74
Modify  | 30.646     | 30.826     | 31.024     |   2.0 | 14.56
Other   |            | 5.983      |            |       |  2.83

Nlocal:            500 ave         513 max         486 min
Histogram: 1 0 1 1 0 2 1 0 1 1
Nghost:        2537.12 ave        2560 max        2526 min
Histogram: 1 3 0 2 1 0 0 0 0 1
Neighs:          36517 ave       37978 max       35361 min
Histogram: 1 1 1 1 1 1 1 0 0 1

Total # of neighbors = 292136
Ave neighs/atom = 73.034
Neighbor list builds = 2123
Dangerous builds = 0
Total wall time: 0:03:52
