LAMMPS (2 Apr 2025)
KOKKOS mode with Kokkos version 4.6.0 is enabled (src/KOKKOS/kokkos.cpp:72)
  will use up to 1 GPU(s) per node
  using 1 OpenMP thread(s) per MPI task
Lattice spacing in x,y,z = 3.615 3.615 3.615
Created orthogonal box = (0 0 0) to (36.15 36.15 36.15)
  2 by 2 by 2 MPI processor grid
Created 4000 atoms
  using lattice units in orthogonal box = (0 0 0) to (36.15 36.15 36.15)
  create_atoms CPU = 0.006 seconds
Reading eam potential file Cu_u3.eam with DATE: 2007-06-11
Neighbor list info ...
  update: every = 1 steps, delay = 0 steps, check = yes
  max neighbors/atom: 2000, page size: 100000
  master list distance cutoff = 6.95
  ghost atom cutoff = 6.95
  binsize = 6.95, bins = 6 6 6
  1 neighbor lists, perpetual/occasional/extra = 1 0 0
  (1) pair eam/kk, perpetual
      attributes: half, newton on, kokkos_device
      pair build: half/bin/newton/kk/device
      stencil: half/bin/3d
      bin: kk/device
Setting up Verlet run ...
  Unit style    : metal
  Current step  : 0
  Time step     : 0.0005
WARNING: Fix STORE/ATOM not compatible with sending data in Kokkos communication (src/KOKKOS/comm_kokkos.cpp:766)
WARNING: Fix with atom-based arrays not compatible with sending data in Kokkos communication, switching to classic exchange/border communication (src/KOKKOS/comm_kokkos.cpp:779)
WARNING: Fix STORE/ATOM not compatible with Kokkos sorting on device (src/KOKKOS/atom_kokkos.cpp:212)
WARNING: Fix with atom-based arrays not compatible with Kokkos sorting on device, switching to classic host sorting (src/KOKKOS/atom_kokkos.cpp:218)
Per MPI rank memory allocation (min/avg/max) = 4.315 | 4.315 | 4.315 Mbytes
   Step          Time           Temp          PotEng         KinEng         Press          Volume        Density        c_Msd[4]   
         0   0              12000         -14160          6202.9358      140246.29      47241.633      8.9351058      0            
      1000   0.5            11863.563     -7545.1953      6132.4101      1000553.4      40468.292      10.430611      7.9707649    
      2000   1              11918.847     -7502.1359      6160.9867      1005824.4      40443.798      10.436928      17.295869    
      3000   1.5            11789.441     -7593.4151      6094.0955      990796.27      40520.57       10.417153      26.146967    
      4000   2              11856.319     -7582.9086      6128.6654      993234.06      40560.996      10.406771      35.300155    
      5000   2.5            12148.268     -7547.3866      6279.5773      1006684.9      40406.301      10.446613      43.714695    
      6000   3              11924.15      -7643.0874      6163.7281      991846.39      40542.859      10.411426      52.812256    
      7000   3.5            11866.014     -7488.0102      6133.6768      1016461        40252.192      10.486609      61.23911     
      8000   4              12170.479     -7602.7767      6291.0582      986974.36      40695.179      10.372457      70.477433    
      9000   4.5            12154.459     -7526.8941      6282.7776      1005854        40482.894      10.426848      78.662104    
     10000   5              11945.28      -7529.4671      6174.6503      1007410.3      40371.615      10.455588      87.883646    
Loop time of 19.6243 on 8 procs for 10000 steps with 4000 atoms

Performance: 22.013 ns/day, 1.090 hours/ns, 509.572 timesteps/s, 2.038 Matom-step/s
171.5% CPU use with 8 MPI tasks x 1 OpenMP threads

MPI task timing breakdown:
Section |  min time  |  avg time  |  max time  |%varavg| %total
---------------------------------------------------------------
Pair    | 11.623     | 11.655     | 11.703     |   0.7 | 59.39
Neigh   | 0.12847    | 0.13215    | 0.14675    |   1.6 |  0.67
Comm    | 3.921      | 3.967      | 3.9878     |   1.1 | 20.21
Output  | 0.00095248 | 0.001079   | 0.0011631  |   0.2 |  0.01
Modify  | 3.1575     | 3.1897     | 3.2389     |   1.5 | 16.25
Other   |            | 0.6789     |            |       |  3.46

Nlocal:            500 ave         512 max         489 min
Histogram: 1 0 0 2 2 1 1 0 0 1
Nghost:        2466.62 ave        2484 max        2455 min
Histogram: 1 0 4 1 0 0 0 0 1 1
Neighs:        34623.1 ave       35197 max       33836 min
Histogram: 1 0 1 0 1 1 1 0 2 1

Total # of neighbors = 276985
Ave neighs/atom = 69.24625
Neighbor list builds = 265
Dangerous builds = 0
Setting up Verlet run ...
  Unit style    : metal
  Current step  : 10000
  Time step     : 0.0005
WARNING: Fix STORE/ATOM not compatible with Kokkos sorting on device (src/KOKKOS/atom_kokkos.cpp:212)
WARNING: Fix with atom-based arrays not compatible with Kokkos sorting on device, switching to classic host sorting (src/KOKKOS/atom_kokkos.cpp:218)
Per MPI rank memory allocation (min/avg/max) = 5.509 | 5.509 | 5.509 Mbytes
   Step          Time           Temp          PotEng         KinEng         Press          Volume        Density        c_Msd[4]   
     10000   5              11945.28      -7529.4671      6174.6503      1007410.3      40371.615      10.455588      87.883646    
     11000   5.5            9109.418      -8050.857       4708.7613      1005292.8      38923.771      10.844504      93.835254    
     12000   6              8931.4324     -8056.2471      4616.7585      996301.99      39034.747      10.813673      99.954885    
     13000   6.5            8937.2167     -8096.3326      4619.7485      990260.24      39092.741      10.797631      106.08217    
     14000   7              9114.7214     -8097.5293      4711.5027      1004058.4      38876.492      10.857692      111.88856    
     15000   7.5            9009.7538     -7969.401       4657.2437      1016939.4      38813.923      10.875195      117.94933    
     16000   8              8982.3274     -8219.3085      4643.0667      979971.19      39107.703      10.7935        123.94236    
     17000   8.5            9039.7611     -8037.9248      4672.7548      1006016.3      38897.488      10.851832      129.09161    
     18000   9              8936.2994     -8133.6221      4619.2743      1002917.7      38824.211      10.872313      134.90531    
     19000   9.5            9154.7799     -7933.7115      4732.2094      1030345        38672.99       10.914827      140.31411    
     20000   10             9105.8464     -8174.8264      4706.9151      987525.28      39041          10.811941      146.92982    
     21000   10.5           9072.5985     -7969.3821      4689.7289      1012231.1      38904.608      10.849846      151.18097    
     22000   11             9345.7568     -8075.6451      4830.9275      1011903.4      38831.185      10.870361      156.4501     
     23000   11.5           8903.6063     -8144.8153      4602.3749      976941.47      39214.612      10.764074      163.54501    
     24000   12             9020.7117     -8045.9566      4662.908       1011098.3      38823.405      10.872539      168.96779    
     25000   12.5           9003.7701     -8152.6869      4654.1507      985939.78      39039.72       10.812296      175.14083    
     26000   13             8920.6353     -8179.526       4611.1774      984450.63      39060.16       10.806637      179.65351    
     27000   13.5           9194.7345     -8164.4309      4752.8624      1002450.2      38815.838      10.874659      185.0843     
     28000   14             9053.7998     -8150.0338      4680.0116      986505.02      39098.931      10.795922      191.93553    
     29000   14.5           8998.2649     -8011.1132      4651.305       1011374.1      38838.03       10.868445      197.07742    
     30000   15             9165.1074     -8090.1855      4737.5477      1000886.6      38946.287      10.838234      203.41028    
     31000   15.5           8865.4311     -8077.0175      4582.6417      995940.53      38992.675      10.825341      208.67561    
     32000   16             9023.5147     -8069.1704      4664.3569      1016050.3      38711.228      10.904046      213.5846     
     33000   16.5           9124.1271     -8064.4715      4716.3646      1007658.9      38859.435      10.862458      220.00771    
     34000   17             8987.3616     -8095.2307      4645.669       986793.71      39157.92       10.779658      225.91973    
     35000   17.5           9156.3458     -8063.2247      4733.0188      1009482.2      38841.847      10.867377      231.30163    
     36000   18             9094.1125     -8170.8191      4700.8497      992564.92      38990.165      10.826038      237.87148    
     37000   18.5           9186.961      -8016.1385      4748.8441      1021237.2      38753.604      10.892122      242.01932    
     38000   19             9015.0682     -8089.685       4659.9908      999386.61      38939.358      10.840163      248.5684     
     39000   19.5           8799.1749     -8154.934       4548.3931      983584.07      39079.845      10.801194      253.91219    
     40000   20             9089.3503     -8098.2844      4698.3881      1012999.7      38717.348      10.902322      257.58381    
     41000   20.5           9015.4769     -8147.3571      4660.2021      996082.55      38921.108      10.845246      263.3136     
     42000   21             8965.9032     -8160.9687      4634.5768      993147.54      38949.065      10.837462      269.37733    
     43000   21.5           9183.6329     -8042.2702      4747.1238      1008771.1      38903.824      10.850064      274.15438    
     44000   22             9047.4578     -8057.6333      4676.7334      1010968.8      38798.422      10.87954       278.7677     
     45000   22.5           9237.1568     -8124.3686      4774.7909      1000650.1      38925.813      10.843935      285.02453    
     46000   23             9034.2407     -8097.6914      4669.9013      991469.22      39104.551      10.79437       292.84716    
     47000   23.5           8900.4611     -8145.8356      4600.7491      990717.74      39025.789      10.816155      298.62936    
     48000   24             9043.308      -7934.6442      4674.5883      1029588.6      38646.411      10.922334      302.24076    
     49000   24.5           8837.7519     -8017.2963      4568.334       1009956.7      38819.148      10.873732      308.8603     
     50000   25             8756.0414     -8112.0189      4526.0969      994771.38      38933.669      10.841747      314.51719    
     51000   25.5           9035.6602     -8058.6568      4670.635       1007302.3      38847.145      10.865895      318.97686    
     52000   26             9258.764      -8079.7349      4785.9599      1009113.1      38859.107      10.86255       326.47891    
     53000   26.5           8966.978      -8103.9853      4635.1325      987901.9       39110.803      10.792645      333.88878    
     54000   27             8872.9685     -8077.4931      4586.5378      1003042.1      38846.574      10.866054      338.20785    
     55000   27.5           9030.3392     -8034.6626      4667.8845      1016069.7      38739.343      10.896132      344.84303    
     56000   28             8946.1641     -8198.0588      4624.3735      977709.98      39155.925      10.780208      352.53732    
     57000   28.5           9130.4435     -8046.7433      4719.6296      1007937.7      38888.017      10.854475      355.81977    
     58000   29             9176.9383     -8125.9818      4743.6633      995549.59      39003.99       10.8222        362.10809    
     59000   29.5           8963.5927     -8105.0647      4633.3825      999112.91      38921.762      10.845064      366.49105    
     60000   30             8989.2247     -8030.2895      4646.632       1000345.5      39010.064      10.820515      371.61154    
     61000   30.5           9033.0286     -8107.3718      4669.2747      999731.42      38898.591      10.851524      375.89936    
     62000   31             8896.3427     -8116.3711      4598.6202      989426.29      39072.13       10.803327      382.51985    
     63000   31.5           8981.1643     -7971.473       4642.4655      1023984.3      38687.198      10.910818      384.69521    
     64000   32             8997.6591     -8087.5644      4650.9918      1000917.9      38929.326      10.842957      391.8778     
     65000   32.5           8876.3443     -8123.2135      4588.2828      986809.17      39074.851      10.802575      397.99832    
     66000   33             8969.4191     -7938.7675      4636.3943      1023928.3      38724.196      10.900394      401.16208    
     67000   33.5           9107.7955     -8065.6547      4707.9226      998540.22      38991.473      10.825675      408.88388    
     68000   34             9022.7417     -8197.6071      4663.9573      985510.72      39062.396      10.806019      415.02217    
     69000   34.5           9046.388      -8091.7335      4676.1803      1008551        38805.198      10.87764       418.57061    
     70000   35             9048.6411     -8171.725       4677.345       992139.49      38972.417      10.830968      424.51477    
     71000   35.5           9110.3001     -8039.3895      4709.2172      1003323.9      38955.651      10.835629      431.18342    
     72000   36             8861.61       -7991.2924      4580.6665      1018669.6      38727.903      10.89935       436.25141    
     73000   36.5           8822.5712     -8136.8784      4560.4869      994674.96      38911.132      10.848027      443.09011    
     74000   37             8872.3121     -8160.7946      4586.1986      987500.59      39019.494      10.8179        449.15362    
     75000   37.5           9125.4702     -8178.9541      4717.0588      986545.25      39049.501      10.809587      455.00701    
     76000   38             9077.4361     -8014.2956      4692.2295      1022161.5      38697.694      10.907859      457.76241    
     77000   38.5           8850.7766     -8090.973       4575.0666      991082.55      39073.483      10.802953      466.95129    
     78000   39             8853.2906     -8076.6884      4576.3661      999340.24      38920.432      10.845434      472.36742    
     79000   39.5           9129.4285     -8188.8354      4719.1049      992758.82      38964.733      10.833104      478.124      
     80000   40             8883.0417     -8113.0008      4591.7448      981616.36      39184.121      10.77245       486.24276    
     81000   40.5           9020.8057     -8063.328       4662.9566      1008163        38825.588      10.871928      490.12751    
     82000   41             8864.1068     -8045.4106      4581.9572      997973.98      38985.615      10.827301      497.97846    
     83000   41.5           9068.6815     -8070.9673      4687.7041      1005829.4      38888.833      10.854247      502.28398    
     84000   42             9252.3109     -8077.0974      4782.6242      1010207.2      38808.2        10.876799      508.05078    
     85000   42.5           9068.0285     -8188.162       4687.3666      978033.57      39200.124      10.768052      517.38915    
     86000   43             9104.2213     -8107.7651      4706.075       995110.22      39028.735      10.815339      520.67096    
     87000   43.5           8920.1793     -8067.4635      4610.9417      1001440.9      38906.292      10.849376      525.36874    
     88000   44             8932.9421     -8150.3585      4617.5389      990758.61      38991.163      10.82576       532.99486    
     89000   44.5           9168.6123     -8028.9622      4739.3595      1019939.8      38717.013      10.902416      538.36664    
     90000   45             8815.7353     -8018.7373      4556.9534      1007352.8      38865.487      10.860767      546.15407    
     91000   45.5           8708.8587     -8113.2399      4501.7077      993617.85      38926.404      10.84377       550.35697    
     92000   46             8997.1013     -8149.0512      4650.7035      995189.47      38921.046      10.845263      556.42161    
     93000   46.5           9240.7432     -8057.4924      4776.6448      1017442.1      38727.601      10.899436      559.39648    
     94000   47             9133.5875     -8193.313       4721.2548      987288.98      39026.521      10.815952      567.72751    
     95000   47.5           8883.0228     -8039.6846      4591.735       1003696.2      38926.869      10.843641      573.44448    
     96000   48             8833.1692     -8022.6374      4565.9651      1007871.4      38838.899      10.868202      578.42868    
     97000   48.5           9156.5887     -8201.5915      4733.1443      984219.48      39099.419      10.795787      585.68188    
     98000   49             9028.0722     -7994.0589      4666.7127      1018883        38772.548      10.8868        588.85468    
     99000   49.5           8870.7777     -8074.4914      4585.4054      996243.4       38981.905      10.828332      594.68877    
    100000   50             8998.0898     -8097.6242      4651.2145      989646.95      39098.243      10.796112      601.71502    
    101000   50.5           9096.9903     -8081.2963      4702.3373      998506.85      38991.427      10.825687      607.7289     
    102000   51             8966.1737     -8030.5053      4634.7167      1006970.9      38881.956      10.856167      613.25954    
    103000   51.5           9131.9794     -8146.737       4720.4235      994019.89      39000.64       10.82313       621.82679    
    104000   52             8951.0038     -8021.077       4626.8752      1008851.7      38866.07       10.860604      625.01776    
    105000   52.5           9016.0357     -8039.074       4660.4909      1010012.3      38834.322      10.869483      632.33338    
    106000   53             8980.2257     -8130.3055      4641.9803      988930.32      39048.516      10.80986       641.12255    
    107000   53.5           9076.1645     -8072.4631      4691.5722      1010060.1      38808.86       10.876614      643.79952    
    108000   54             8948.7428     -8097.5945      4625.7065      1004246.6      38821.998      10.872933      650.88363    
    109000   54.5           8928.5657     -8090.7541      4615.2767      993456.53      39062.008      10.806126      658.87013    
    110000   55             9063.4987     -8027.2732      4685.0251      1008713.6      38900.65       10.85095       661.8327     
Loop time of 211.101 on 8 procs for 100000 steps with 4000 atoms

Performance: 20.464 ns/day, 1.173 hours/ns, 473.708 timesteps/s, 1.895 Matom-step/s
163.0% CPU use with 8 MPI tasks x 1 OpenMP threads

MPI task timing breakdown:
Section |  min time  |  avg time  |  max time  |%varavg| %total
---------------------------------------------------------------
Pair    | 114.17     | 114.42     | 114.64     |   1.4 | 54.20
Neigh   | 1.0947     | 1.105      | 1.1169     |   0.9 |  0.52
Comm    | 37.762     | 37.955     | 38.222     |   2.6 | 17.98
Output  | 20.714     | 20.715     | 20.718     |   0.0 |  9.81
Modify  | 30.767     | 30.898     | 31.062     |   1.7 | 14.64
Other   |            | 6.005      |            |       |  2.84

Nlocal:            500 ave         507 max         492 min
Histogram: 1 1 1 0 0 0 1 1 2 1
Nghost:         2518.5 ave        2526 max        2510 min
Histogram: 1 0 0 3 1 0 0 0 2 1
Neighs:        35937.6 ave       36565 max       34898 min
Histogram: 1 0 0 1 0 2 0 1 1 2

Total # of neighbors = 287501
Ave neighs/atom = 71.87525
Neighbor list builds = 2264
Dangerous builds = 0
Total wall time: 0:03:52
