LAMMPS (2 Apr 2025)
KOKKOS mode with Kokkos version 4.6.0 is enabled (src/KOKKOS/kokkos.cpp:72)
  will use up to 1 GPU(s) per node
  using 1 OpenMP thread(s) per MPI task
Lattice spacing in x,y,z = 3.924 3.924 3.924
Created orthogonal box = (0 0 0) to (39.24 39.24 39.24)
  2 by 2 by 2 MPI processor grid
Created 4000 atoms
  using lattice units in orthogonal box = (0 0 0) to (39.24 39.24 39.24)
  create_atoms CPU = 0.007 seconds
Reading eam potential file Pt_u3.eam with DATE: 2007-06-11
Neighbor list info ...
  update: every = 1 steps, delay = 0 steps, check = yes
  max neighbors/atom: 2000, page size: 100000
  master list distance cutoff = 7.3
  ghost atom cutoff = 7.3
  binsize = 7.3, bins = 6 6 6
  1 neighbor lists, perpetual/occasional/extra = 1 0 0
  (1) pair eam/kk, perpetual
      attributes: half, newton on, kokkos_device
      pair build: half/bin/newton/kk/device
      stencil: half/bin/3d
      bin: kk/device
Setting up Verlet run ...
  Unit style    : metal
  Current step  : 0
  Time step     : 0.0005
WARNING: Fix STORE/ATOM not compatible with sending data in Kokkos communication (src/KOKKOS/comm_kokkos.cpp:766)
WARNING: Fix with atom-based arrays not compatible with sending data in Kokkos communication, switching to classic exchange/border communication (src/KOKKOS/comm_kokkos.cpp:779)
WARNING: Fix STORE/ATOM not compatible with Kokkos sorting on device (src/KOKKOS/atom_kokkos.cpp:212)
WARNING: Fix with atom-based arrays not compatible with Kokkos sorting on device, switching to classic host sorting (src/KOKKOS/atom_kokkos.cpp:218)
Per MPI rank memory allocation (min/avg/max) = 4.315 | 4.315 | 4.315 Mbytes
   Step          Time           Temp          PotEng         KinEng         Press          Volume        Density        c_Msd[4]   
         0   0              12000         -23079.503      6202.9358      101063.07      60420.873      21.446531      0            
      1000   0.5            11470.472     -16974.459      5929.2167      1002863.7      55496.123      23.349706      3.4171625    
      2000   1              12035.985     -17072.316      6221.5367      988267.44      55687.472      23.269473      7.7296313    
      3000   1.5            11804.987     -16937.8        6102.1314      995853.74      55736.852      23.248858      12.636635    
      4000   2              11967.504     -16964.958      6186.1385      992629.73      55826.524      23.211514      17.326637    
      5000   2.5            12188.233     -16943.373      6300.2357      999387.74      55760.059      23.239182      22.009546    
      6000   3              11922.248     -16968.136      6162.7449      996778.1       55703.571      23.262748      26.543219    
      7000   3.5            12110.163     -16982.391      6259.8801      1002204        55643.878      23.287704      31.219759    
      8000   4              12205.964     -16904.988      6309.4009      1011979.5      55628.701      23.294057      35.71777     
      9000   4.5            12294.663     -16973.416      6355.2507      994130.73      55825.326      23.212012      40.570377    
     10000   5              12169.83      -16968.474      6290.7231      1010293.2      55499.248      23.348391      44.519681    
Loop time of 17.7271 on 8 procs for 10000 steps with 4000 atoms

Performance: 24.369 ns/day, 0.985 hours/ns, 564.107 timesteps/s, 2.256 Matom-step/s
179.4% CPU use with 8 MPI tasks x 1 OpenMP threads

MPI task timing breakdown:
Section |  min time  |  avg time  |  max time  |%varavg| %total
---------------------------------------------------------------
Pair    | 9.9676     | 10.139     | 10.314     |   3.3 | 57.20
Neigh   | 0.058895   | 0.059828   | 0.060726   |   0.3 |  0.34
Comm    | 3.6501     | 3.8381     | 4.022      |   5.8 | 21.65
Output  | 0.00096981 | 0.001092   | 0.00121    |   0.3 |  0.01
Modify  | 3.0788     | 3.093      | 3.1022     |   0.5 | 17.45
Other   |            | 0.596      |            |       |  3.36

Nlocal:            500 ave         509 max         486 min
Histogram: 1 0 0 0 1 2 1 0 2 1
Nghost:           2262 ave        2284 max        2249 min
Histogram: 2 0 2 1 0 1 1 0 0 1
Neighs:        29199.4 ave       31977 max       25627 min
Histogram: 1 0 0 0 3 0 2 0 1 1

Total # of neighbors = 233595
Ave neighs/atom = 58.39875
Neighbor list builds = 154
Dangerous builds = 0
Setting up Verlet run ...
  Unit style    : metal
  Current step  : 10000
  Time step     : 0.0005
WARNING: Fix STORE/ATOM not compatible with Kokkos sorting on device (src/KOKKOS/atom_kokkos.cpp:212)
WARNING: Fix with atom-based arrays not compatible with Kokkos sorting on device, switching to classic host sorting (src/KOKKOS/atom_kokkos.cpp:218)
Per MPI rank memory allocation (min/avg/max) = 5.509 | 5.509 | 5.509 Mbytes
   Step          Time           Temp          PotEng         KinEng         Press          Volume        Density        c_Msd[4]   
     10000   5              12169.83      -16968.474      6290.7231      1010293.2      55499.248      23.348391      44.519681    
     11000   5.5            10287.491     -17215.097      5317.7208      1009357.7      54692.697      23.692709      47.581131    
     12000   6              9682.3938     -17302.806      5004.939       989274.94      54754.895      23.665796      50.489205    
     13000   6.5            9946.0457     -17296.391      5141.2236      982841.08      54973.247      23.571796      54.67295     
     14000   7              9846.9222     -17263.512      5089.9855      995199.57      54769.459      23.659502      58.400584    
     15000   7.5            9790.1212     -17142.912      5060.6244      1009327.3      54752.602      23.666787      62.194192    
     16000   8              9917.1373     -17145.679      5126.2805      1019859.6      54561.864      23.749521      66.327177    
     17000   8.5            9867.4914     -17184.207      5100.618       1015258.5      54558.978      23.750778      70.013099    
     18000   9              10042.455     -17180.13       5191.0588      1019791        54526.307      23.765008      73.664656    
     19000   9.5            10157.653     -17214.82       5250.606       1012113.9      54622.395      23.723203      77.615457    
     20000   10             10165.055     -17187.584      5254.4322      1005864        54765.72       23.661118      80.963374    
     21000   10.5           10078.638     -17071.001      5209.762       1032190.4      54549.308      23.754988      84.362909    
     22000   11             9975.3185     -17220.126      5156.3551      1012981.7      54569.214      23.746323      87.823789    
     23000   11.5           9814.5094     -17270.481      5073.231       996135.5       54723.395      23.679418      91.3217      
     24000   12             9852.808      -17258.885      5093.028       1000506.6      54700.079      23.689512      95.336213    
     25000   12.5           9636.17       -17264.782      4981.0454      997191.15      54705.647      23.687101      98.876733    
     26000   13             9970.8062     -17280.375      5154.0226      992651.04      54826.041      23.635085      102.87817    
     27000   13.5           10007.515     -17302.002      5172.9978      991295.5       54766.092      23.660957      106.04098    
     28000   14             10087.859     -17244.842      5214.5287      998432.79      54787.839      23.651566      109.35743    
     29000   14.5           10196.973     -17316.023      5270.9305      994681.04      54754.338      23.666036      112.60491    
     30000   15             10311.338     -17326.526      5330.0473      987031.23      54886.992      23.608839      116.39621    
     31000   15.5           9932.0901     -17240.785      5134.0098      1003424        54712.27       23.684233      119.8321     
     32000   16             9979.1166     -17277.372      5158.3183      996636.38      54732.845      23.67533       123.60599    
     33000   16.5           9991.8856     -17386.691      5164.9188      972960.55      54940.033      23.586046      127.17776    
     34000   17             10191.067     -17305.252      5267.878       995692.71      54732.179      23.675618      130.61255    
     35000   17.5           9944.9289     -17283.372      5140.6463      997161.78      54690.882      23.693495      133.73618    
     36000   18             9771.0133     -17255.568      5050.7474      997906.09      54720.276      23.680768      137.00054    
     37000   18.5           9938.4661     -17264.97       5137.3056      998754.68      54709.648      23.685368      139.72687    
     38000   19             9831.8216     -17283.418      5082.1799      1001451.7      54640.905      23.715167      143.35526    
     39000   19.5           9812.791      -17253.739      5072.3428      993694.99      54790.548      23.650396      147.00533    
     40000   20             9982.6705     -17313.002      5160.1554      992577.64      54754.753      23.665857      150.61006    
     41000   20.5           9907.8776     -17270.771      5121.4941      992795.26      54833.343      23.631938      154.46107    
     42000   21             9985.1233     -17385.599      5161.4232      969547.81      55020.978      23.551347      158.51962    
     43000   21.5           10130.073     -17252.634      5236.3492      997830.8       54786.678      23.652066      162.14186    
     44000   22             9720.7014     -17296.598      5024.7406      992485.46      54706.623      23.686678      166.0441     
     45000   22.5           9976.8065     -17401.958      5157.1242      961918.27      55123.305      23.507628      170.45202    
     46000   23             10101.481     -17221.175      5221.57        1002940.4      54756.985      23.664892      172.97223    
     47000   23.5           10025.027     -17314.502      5182.0502      981306.36      54935.301      23.588078      176.5787     
     48000   24             9936.9634     -17203.871      5136.5288      1004644.1      54725.587      23.67847       179.28164    
     49000   24.5           9897.7133     -17227.805      5116.24        999361.3       54741.771      23.671469      183.12151    
     50000   25             9923.5441     -17316.319      5129.5923      1003392.5      54554.343      23.752796      186.10462    
     51000   25.5           10044.108     -17356.882      5191.9129      990521.56      54709.241      23.685544      190.75507    
     52000   26             10056.869     -17172.076      5198.5093      1018416.6      54579.909      23.741669      193.60544    
     53000   26.5           9998.3273     -17240.228      5168.2485      999821.67      54741.681      23.671508      197.61271    
     54000   27             9918.9785     -17235.247      5127.2322      1000654.7      54738.623      23.672831      200.51433    
     55000   27.5           10073.971     -17362.218      5207.3497      988010.35      54750.328      23.667769      203.88357    
     56000   28             10107.01      -17310.009      5224.4278      990583.19      54784.877      23.652844      207.64997    
     57000   28.5           10291.176     -17176.696      5319.6252      1019739.4      54565.556      23.747914      211.19695    
     58000   29             10127.503     -17146.655      5235.021       1017356.7      54631.866      23.71909       215.1278     
     59000   29.5           9836.3284     -17244.341      5084.5095      1004223.3      54636.55       23.717056      218.43084    
     60000   30             10111.676     -17211.69       5226.8395      1016294.4      54546.748      23.756103      221.14897    
     61000   30.5           9952.9178     -17224.69       5144.7759      1009694.7      54608.433      23.729268      224.46452    
     62000   31             9908.7638     -17138.289      5121.9522      1014100.6      54680.953      23.697798      228.60889    
     63000   31.5           10028.094     -17300.72       5183.6351      982983.36      54949.445      23.582006      232.37462    
     64000   32             10014.511     -17330.735      5176.6143      979701.48      54938.765      23.586591      235.22301    
     65000   32.5           10103.589     -17192.084      5222.6593      1005071        54804.511      23.64437       238.06537    
     66000   33             10012.692     -17322.657      5175.6739      980851.75      54925.5        23.592287      242.29888    
     67000   33.5           10065.953     -17346.87       5203.2051      980487.91      54904.259      23.601414      245.24563    
     68000   34             10072.945     -17313.684      5206.8193      994379.13      54729.314      23.676857      248.07722    
     69000   34.5           9910.6907     -17153.632      5122.9482      1014705.8      54632.31       23.718898      250.32794    
     70000   35             10059.995     -17181.856      5200.1252      1018540.8      54554.746      23.75262       253.72927    
     71000   35.5           10040.049     -17235.285      5189.8149      1007667.5      54623.165      23.722868      257.78589    
     72000   36             9919.5496     -17306.67       5127.5275      989051.78      54805.958      23.643746      262.1768     
     73000   36.5           10230.621     -17362.379      5288.3239      983248.79      54833.247      23.631979      266.32842    
     74000   37             10054.881     -17294.279      5197.4819      986256.7       54905.376      23.600934      270.48565    
     75000   37.5           10149.432     -17362.047      5246.3563      980010.18      54896.246      23.604859      273.48963    
     76000   38             10138.468     -17231.353      5240.6888      1016241        54522.242      23.766781      275.43169    
     77000   38.5           9886.2345     -17224.82       5110.3065      1004881.1      54673.453      23.701048      279.6642     
     78000   39             9942.1052     -17242.988      5139.1867      1000365.7      54757.065      23.664858      283.66244    
     79000   39.5           9889.0009     -17194.66       5111.7365      1009011        54682.987      23.696916      286.25198    
     80000   40             9999.6798     -17229.009      5168.9477      1012247.7      54563.232      23.748926      288.77977    
     81000   40.5           10039.854     -17359.632      5189.7141      978959.86      54910.285      23.598824      293.34321    
     82000   41             10003.146     -17189.222      5170.7394      1016703.2      54573.395      23.744503      295.73217    
     83000   41.5           9856.1033     -17171.715      5094.7314      1007391.9      54716.694      23.682318      299.13438    
     84000   42             10129.908     -17261.122      5236.2641      995616.15      54797.708      23.647306      303.03445    
     85000   42.5           9971.9995     -17300.292      5154.6394      992489.41      54753.783      23.666276      305.86016    
     86000   43             10031.753     -17203.011      5185.5269      1010270.2      54665.126      23.704659      307.67932    
     87000   43.5           10097.658     -17247.852      5219.5938      1009038.1      54624.641      23.722227      310.75926    
     88000   44             10143.011     -17303.852      5243.037       993743         54780.166      23.654878      314.51054    
     89000   44.5           10137.793     -17235.972      5240.3398      1006318.6      54667.7        23.703542      317.39911    
     90000   45             10182.279     -17214.113      5263.3354      1018892.1      54516.201      23.769414      321.03213    
     91000   45.5           10158.298     -17248.866      5250.9395      996575.79      54842.71       23.627902      326.91675    
     92000   46             9838.4888     -17275.013      5085.6262      995252.11      54759.56       23.663779      329.62144    
     93000   46.5           9994.7142     -17213.559      5166.3809      1014700.9      54545.62       23.756594      332.69442    
     94000   47             10118         -17219.254      5230.1088      1018021.8      54506.032      23.773849      337.01751    
     95000   47.5           10040.114     -17245.25       5189.8486      1004777.8      54694.07       23.692114      341.01882    
     96000   48             9703.9889     -17295.291      5016.1017      994242.69      54693.987      23.69215       343.90649    
     97000   48.5           9882.8792     -17312.351      5108.5721      982320.92      54914.367      23.59707       346.83896    
     98000   49             10179.376     -17070.031      5261.8348      1041082.8      54405.622      23.817725      346.54079    
     99000   49.5           9984.4952     -17198.312      5161.0986      1004440.9      54739.991      23.672239      350.88267    
    100000   50             10061.559     -17152.742      5200.9336      1010770.7      54755.811      23.6654        354.8531     
    101000   50.5           10200.258     -17213.707      5272.6286      1009846.1      54670.499      23.702329      358.59075    
    102000   51             10009.804     -17316.786      5174.1811      991626.53      54748.059      23.66875       362.04562    
    103000   51.5           10137.019     -17365.457      5239.9397      975726.16      54960.904      23.57709       366.63483    
    104000   52             9892.854      -17292.457      5113.7282      984561.19      54905.372      23.600936      370.1419     
    105000   52.5           9869.9112     -17200.785      5101.8688      1012981.5      54561.312      23.749762      371.04792    
    106000   53             10094.555     -17267.194      5217.9899      992104.62      54866.015      23.617865      375.38454    
    107000   53.5           10013.468     -17268.388      5176.0749      1000475.6      54678.411      23.698899      378.13403    
    108000   54             10106.997     -17287.067      5224.4211      993994.94      54781.818      23.654165      382.02294    
    109000   54.5           9905.3962     -17242.719      5120.2114      994035.11      54831.047      23.632928      385.46899    
    110000   55             10224.985     -17412.404      5285.4104      969363.36      54978.952      23.56935       388.19672    
Loop time of 177.433 on 8 procs for 100000 steps with 4000 atoms

Performance: 24.347 ns/day, 0.986 hours/ns, 563.593 timesteps/s, 2.254 Matom-step/s
179.0% CPU use with 8 MPI tasks x 1 OpenMP threads

MPI task timing breakdown:
Section |  min time  |  avg time  |  max time  |%varavg| %total
---------------------------------------------------------------
Pair    | 99.995     | 101.81     | 103.56     |  10.5 | 57.38
Neigh   | 0.51815    | 0.52521    | 0.533      |   0.9 |  0.30
Comm    | 36.45      | 38.303     | 40.238     |  18.4 | 21.59
Output  | 0.022701   | 0.023783   | 0.024615   |   0.5 |  0.01
Modify  | 30.694     | 30.844     | 30.951     |   1.5 | 17.38
Other   |            | 5.923      |            |       |  3.34

Nlocal:            500 ave         509 max         487 min
Histogram: 1 0 1 0 1 1 0 1 1 2
Nghost:         2273.5 ave        2291 max        2260 min
Histogram: 2 2 0 0 0 1 0 1 1 1
Neighs:        29586.5 ave       31993 max       27334 min
Histogram: 1 1 0 1 1 1 0 2 0 1

Total # of neighbors = 236692
Ave neighs/atom = 59.173
Neighbor list builds = 1388
Dangerous builds = 0
Total wall time: 0:03:16
