LAMMPS (2 Apr 2025)
KOKKOS mode with Kokkos version 4.6.0 is enabled (src/KOKKOS/kokkos.cpp:72)
  will use up to 1 GPU(s) per node
  using 1 OpenMP thread(s) per MPI task
Lattice spacing in x,y,z = 3.924 3.924 3.924
Created orthogonal box = (0 0 0) to (39.24 39.24 39.24)
  2 by 2 by 2 MPI processor grid
Created 4000 atoms
  using lattice units in orthogonal box = (0 0 0) to (39.24 39.24 39.24)
  create_atoms CPU = 0.007 seconds
Reading eam potential file Pt_u3.eam with DATE: 2007-06-11
Neighbor list info ...
  update: every = 1 steps, delay = 0 steps, check = yes
  max neighbors/atom: 2000, page size: 100000
  master list distance cutoff = 7.3
  ghost atom cutoff = 7.3
  binsize = 7.3, bins = 6 6 6
  1 neighbor lists, perpetual/occasional/extra = 1 0 0
  (1) pair eam/kk, perpetual
      attributes: half, newton on, kokkos_device
      pair build: half/bin/newton/kk/device
      stencil: half/bin/3d
      bin: kk/device
Setting up Verlet run ...
  Unit style    : metal
  Current step  : 0
  Time step     : 0.0005
WARNING: Fix STORE/ATOM not compatible with sending data in Kokkos communication (src/KOKKOS/comm_kokkos.cpp:766)
WARNING: Fix with atom-based arrays not compatible with sending data in Kokkos communication, switching to classic exchange/border communication (src/KOKKOS/comm_kokkos.cpp:779)
WARNING: Fix STORE/ATOM not compatible with Kokkos sorting on device (src/KOKKOS/atom_kokkos.cpp:212)
WARNING: Fix with atom-based arrays not compatible with Kokkos sorting on device, switching to classic host sorting (src/KOKKOS/atom_kokkos.cpp:218)
Per MPI rank memory allocation (min/avg/max) = 4.315 | 4.315 | 4.315 Mbytes
   Step          Time           Temp          PotEng         KinEng         Press          Volume        Density        c_Msd[4]   
         0   0              12000         -23079.503      6202.9358      101063.07      60420.873      21.446531      0            
      1000   0.5            11470.472     -16974.459      5929.2167      1002863.7      55496.123      23.349706      3.4171625    
      2000   1              12035.985     -17072.316      6221.5367      988267.44      55687.472      23.269473      7.7296313    
      3000   1.5            11804.987     -16937.8        6102.1314      995853.74      55736.852      23.248858      12.636635    
      4000   2              11967.504     -16964.958      6186.1385      992629.74      55826.524      23.211514      17.326637    
      5000   2.5            12188.234     -16943.373      6300.2361      999387.76      55760.058      23.239182      22.009546    
      6000   3              11926.024     -16965.611      6164.6967      997069.89      55704.059      23.262544      26.54308     
      7000   3.5            12045.02      -16944.463      6226.2072      1003045.8      55674.896      23.27473       31.247604    
      8000   4              12180.35      -16997.791      6296.1608      993090.47      55755.838      23.240941      35.999883    
      9000   4.5            11949.183     -16877.147      6176.6678      1012627        55602.322      23.305109      40.451295    
     10000   5              11737.886     -16936.279      6067.4462      995236.82      55768.768      23.235553      44.981074    
Loop time of 17.7221 on 8 procs for 10000 steps with 4000 atoms

Performance: 24.376 ns/day, 0.985 hours/ns, 564.267 timesteps/s, 2.257 Matom-step/s
179.4% CPU use with 8 MPI tasks x 1 OpenMP threads

MPI task timing breakdown:
Section |  min time  |  avg time  |  max time  |%varavg| %total
---------------------------------------------------------------
Pair    | 9.9861     | 10.154     | 10.305     |   3.0 | 57.30
Neigh   | 0.058309   | 0.059305   | 0.060821   |   0.4 |  0.33
Comm    | 3.6466     | 3.8119     | 3.992      |   5.3 | 21.51
Output  | 0.0011418  | 0.0013062  | 0.0014206  |   0.3 |  0.01
Modify  | 3.0773     | 3.0947     | 3.1147     |   0.7 | 17.46
Other   |            | 0.6009     |            |       |  3.39

Nlocal:            500 ave         510 max         491 min
Histogram: 2 0 0 2 1 1 0 0 0 2
Nghost:         2246.5 ave        2257 max        2233 min
Histogram: 1 0 0 2 0 0 2 2 0 1
Neighs:        29070.8 ave       31238 max       25829 min
Histogram: 1 0 0 1 1 1 1 0 0 3

Total # of neighbors = 232566
Ave neighs/atom = 58.1415
Neighbor list builds = 153
Dangerous builds = 0
Setting up Verlet run ...
  Unit style    : metal
  Current step  : 10000
  Time step     : 0.0005
WARNING: Fix STORE/ATOM not compatible with Kokkos sorting on device (src/KOKKOS/atom_kokkos.cpp:212)
WARNING: Fix with atom-based arrays not compatible with Kokkos sorting on device, switching to classic host sorting (src/KOKKOS/atom_kokkos.cpp:218)
Per MPI rank memory allocation (min/avg/max) = 5.509 | 5.509 | 5.509 Mbytes
   Step          Time           Temp          PotEng         KinEng         Press          Volume        Density        c_Msd[4]   
     10000   5              11737.886     -16936.279      6067.4462      995236.82      55768.768      23.235553      44.981074    
     11000   5.5            3521.024      -18557.151      1820.0572      997804.73      51442.995      25.189399      45.478402    
     12000   6              2974.8841     -18770.747      1537.7513      999269.5       51053.922      25.381364      45.627402    
     13000   6.5            3015.0167     -18774.095      1558.4963      1005608.3      50976.586      25.419869      46.17815     
     14000   7              3049.9678     -18758.369      1576.5629      1021854.4      50786.764      25.514879      46.517226    
     15000   7.5            3032.0451     -18769.244      1567.2984      1018189.8      50822.56       25.496908      46.857406    
     16000   8              3073.4165     -18804.215      1588.6838      1010247.1      50878.812      25.468719      47.228499    
     17000   8.5            2998.8011     -18788.722      1550.1142      1012694        50859.854      25.478212      47.468623    
     18000   9              3030.4531     -18667.692      1566.4755      1035343        50729.688      25.543586      47.787407    
     19000   9.5            3059.6368     -18826.426      1581.5609      1004847.8      50926.101      25.445069      47.943019    
     20000   10             3036.7153     -18837.086      1569.7125      1000098        50972.494      25.42191       48.163519    
     21000   10.5           3084.3293     -18816.496      1594.3247      1003122.6      50962.645      25.426823      48.509503    
     22000   11             3039.3176     -18869.929      1571.0577      997828.42      50955.691      25.430293      48.930462    
     23000   11.5           3039.8429     -18837.464      1571.3292      1003088.5      50932.477      25.441884      49.185865    
     24000   12             2973.3851     -18852.116      1536.9764      997076.46      50979.547      25.418393      49.376195    
     25000   12.5           2930.3511     -18755.155      1514.7317      1016724.4      50846.067      25.485121      49.657412    
     26000   13             3006.3987     -18809.79       1554.0415      1010153.3      50871.337      25.472461      49.939976    
     27000   13.5           2966.5548     -18783.562      1533.4458      1010447.9      50900.497      25.457868      50.291576    
     28000   14             2960.1286     -18798.775      1530.124       1008576.3      50900.104      25.458065      50.592336    
     29000   14.5           3024.4708     -18688.611      1563.3832      1034728.2      50713.242      25.55187       50.762297    
     30000   15             3025.5596     -18836.066      1563.946       1007684.3      50870.672      25.472794      51.082861    
     31000   15.5           3036.6794     -18852.94       1569.6939      1007958.3      50851.532      25.482382      51.439757    
     32000   16             3001.9393     -18748.041      1551.7364      1027137.3      50730.877      25.542987      51.858203    
     33000   16.5           2971.6025     -18774.234      1536.055       1020850.7      50770.818      25.522893      52.056866    
     34000   17             2981.7836     -18846.928      1541.3177      998774.39      50971.362      25.422474      52.191605    
     35000   17.5           3033.5931     -18832.866      1568.0986      1004981.1      50914.246      25.450994      52.451195    
     36000   18             2940.6645     -18786.568      1520.0628      1020117.6      50764.634      25.526002      52.57024     
     37000   18.5           3010.157      -18822.857      1555.9842      1011178.9      50835.174      25.490582      52.76906     
     38000   19             2980.5921     -18680.86       1540.7018      1033761.9      50729.559      25.543651      52.956694    
     39000   19.5           3080.9646     -18798.159      1592.5855      1016447.3      50809.361      25.503532      53.229009    
     40000   20             3007.8016     -18798.681      1554.7667      1012174.3      50862.128      25.477073      53.467589    
     41000   20.5           3061.228      -18820.564      1582.3834      1007038.2      50902.815      25.456709      53.69208     
     42000   21             3021.1359     -18811.928      1561.6593      1009180.8      50882.583      25.466831      53.997102    
     43000   21.5           3073.988      -18805.469      1588.9792      1016496.6      50798.133      25.509169      54.225583    
     44000   22             3030.1313     -18754.155      1566.3092      1026749.8      50730.979      25.542936      54.406037    
     45000   22.5           3040.171      -18823.229      1571.4988      1008048.6      50885.613      25.465315      54.936012    
     46000   23             3013.531      -18833.921      1557.7283      1002801.7      50931.219      25.442512      55.233758    
     47000   23.5           3030.5266     -18769.631      1566.5135      1015717        50856.042      25.480122      55.49506     
     48000   24             3030.2785     -18722.454      1566.3852      1023439.5      50820.451      25.497967      55.637064    
     49000   24.5           2980.2471     -18800.746      1540.5234      1008641        50904.158      25.456037      55.878861    
     50000   25             3054.5179     -18815.047      1578.9149      1011986.2      50847.625      25.48434       56.482792    
     51000   25.5           3025.9969     -18714.188      1564.1721      1030127.6      50744.584      25.536088      56.925225    
     52000   26             3046.3062     -18777.661      1574.6702      1017998.2      50812.281      25.502066      57.126384    
     53000   26.5           2978.4273     -18784.711      1539.5828      1014219.7      50849.159      25.483571      57.297147    
     54000   27             3010.7207     -18747.068      1556.2756      1026228        50738.169      25.539317      57.438972    
     55000   27.5           3037.2179     -18784.346      1569.9723      1017328        50815.356      25.500523      57.73648     
     56000   28             2990.8235     -18733.894      1545.9905      1027801.3      50737.834      25.539485      57.803413    
     57000   28.5           3016.4232     -18838.4        1559.2233      1006018.6      50890.454      25.462892      58.112484    
     58000   29             3020.2201     -18845.29       1561.186       1001738.3      50934.25       25.440998      58.467341    
     59000   29.5           2998.6305     -18787.855      1550.0261      1016280.2      50818.202      25.499095      58.669437    
     60000   30             3086.0693     -18797.833      1595.2241      1015478.4      50825.14       25.495614      58.911198    
     61000   30.5           3036.2021     -18801.821      1569.4472      1006644.1      50925.089      25.445574      59.25547     
     62000   31             3013.036      -18809.261      1557.4724      1008321.8      50905.502      25.455365      59.616265    
     63000   31.5           3055.1855     -18835.845      1579.26        1006497.9      50890.313      25.462963      59.930405    
     64000   32             3034.5112     -18762.537      1568.5732      1019022.7      50820.847      25.497768      60.033009    
     65000   32.5           2999.8257     -18741.485      1550.6438      1022820.9      50795.67       25.510406      60.337739    
     66000   33             3033.3297     -18815.313      1567.9625      1007991.4      50896.249      25.459993      60.622617    
     67000   33.5           2963.981      -18761.224      1532.1153      1016972.1      50843.929      25.486192      60.809491    
     68000   34             3093.4427     -18777.73       1599.0355      1018728.2      50806.775      25.50483       61.162847    
     69000   34.5           3043.0467     -18842.461      1572.9853      1003808.6      50914.15       25.451042      61.38368     
     70000   35             2986.6408     -18752.745      1543.8285      1021739.8      50788.607      25.513954      61.440565    
     71000   35.5           3050.9262     -18773.149      1577.0583      1018683.7      50810.557      25.502932      61.707973    
     72000   36             3047.3522     -18825.873      1575.2108      1009998        50854.9        25.480694      62.095422    
     73000   36.5           3000.6622     -18817.257      1551.0763      1005259.5      50921.159      25.447539      62.287149    
     74000   37             3025.9731     -18810.707      1564.1598      1008664.9      50891.666      25.462286      62.703052    
     75000   37.5           3054.3614     -18828.49       1578.834       1005622.1      50913.733      25.45125       62.906804    
     76000   38             2989.4454     -18854.366      1545.2782      1001386.8      50920.812      25.447712      63.147848    
     77000   38.5           3010.9077     -18846.183      1556.3723      1002739.6      50924.296      25.445971      63.519167    
     78000   39             2987.334      -18820.534      1544.1867      1008340.1      50878.246      25.469002      63.821306    
     79000   39.5           3117.7169     -18842.92       1611.5832      1006858.8      50881.207      25.46752       64.020119    
     80000   40             3048.1168     -18742.352      1575.6061      1029613        50710.321      25.553341      64.218504    
     81000   40.5           2976.1953     -18840.239      1538.429       1005221.6      50889.158      25.463541      64.697956    
     82000   41             2988.9478     -18833.093      1545.021       1003562.3      50928.768      25.443736      64.864054    
     83000   41.5           2968.0511     -18880.691      1534.2192      992128.17      51008.775      25.403828      65.238739    
     84000   42             3015.8058     -18961.221      1558.9042      972210.35      51159.827      25.328822      65.48044     
     85000   42.5           2960.7861     -18906.598      1530.4638      985680.28      51054.764      25.380945      65.493252    
     86000   43             2952.6209     -18865.078      1526.2432      988736.46      51078.782      25.369011      65.914856    
     87000   43.5           2998.4656     -18890.192      1549.9408      989250.56      51043.063      25.386763      66.211383    
     88000   44             2958.9782     -18878.889      1529.5293      992021.07      51013.594      25.401428      66.431993    
     89000   44.5           3010.0992     -18873.742      1555.9544      999239.56      50933.37       25.441438      66.651705    
     90000   45             3008.8139     -18881.51       1555.29        993916.9       50991.026      25.412671      66.797108    
     91000   45.5           2952.6134     -18879.889      1526.2393      990439.44      51030.064      25.39323       67.192084    
     92000   46             2908.4308     -18856.052      1503.4008      996489.42      50973.51       25.421403      67.447137    
     93000   46.5           3048.778      -18926.235      1575.9479      987071.05      51028.884      25.393817      67.834422    
     94000   47             2957.9946     -18903.588      1529.0209      991646.7       50986.672      25.414841      68.112092    
     95000   47.5           2976.2905     -18911.464      1538.4782      992050.17      50968.672      25.423817      68.232967    
     96000   48             2945.2588     -18861.52       1522.4376      999749.26      50933.249      25.441498      68.547059    
     97000   48.5           3044.6369     -18863.891      1573.8073      997633.7       50971.409      25.422451      68.93584     
     98000   49             3084.876      -18819.349      1594.6073      1005132.5      50941.307      25.437474      68.98686     
     99000   49.5           2996.5339     -18860.055      1548.9423      1002603.2      50902.101      25.457066      69.289096    
    100000   50             3010.2131     -18812.584      1556.0132      1008225        50891.137      25.462551      69.529473    
    101000   50.5           3027.4723     -18763.383      1564.9347      1017766.3      50835.728      25.490304      69.675248    
    102000   51             3030.5857     -18720.093      1566.5441      1030600.8      50727.519      25.544678      69.998909    
    103000   51.5           2977.5605     -18825.665      1539.1347      1007467.4      50878.38       25.468935      70.223144    
    104000   52             3029.1742     -18861.49       1565.8144      1004054        50886.591      25.464825      70.638494    
    105000   52.5           2964.3102     -18842.219      1532.2855      1004562.4      50900.314      25.45796       70.780783    
    106000   53             2984.395      -18864.258      1542.6676      1005249.7      50866.357      25.474955      71.041026    
    107000   53.5           3029.1834     -18828.096      1565.8192      1010860.2      50842.501      25.486908      71.369894    
    108000   54             3019.5926     -18868.476      1560.8616      1000414.1      50922.713      25.446762      71.831604    
    109000   54.5           2984.5105     -18863.352      1542.7272      999253.54      50935.278      25.440485      72.136141    
    110000   55             2988.5121     -18924.782      1544.7958      985410.48      51036.51       25.390023      72.209812    
Loop time of 179.594 on 8 procs for 100000 steps with 4000 atoms

Performance: 24.054 ns/day, 0.998 hours/ns, 556.811 timesteps/s, 2.227 Matom-step/s
177.3% CPU use with 8 MPI tasks x 1 OpenMP threads

MPI task timing breakdown:
Section |  min time  |  avg time  |  max time  |%varavg| %total
---------------------------------------------------------------
Pair    | 103.52     | 104.91     | 106.63     |   9.0 | 58.41
Neigh   | 0.24373    | 0.24797    | 0.25405    |   0.8 |  0.14
Comm    | 36.053     | 37.917     | 39.453     |  16.5 | 21.11
Output  | 0.018866   | 0.020878   | 0.022649   |   0.9 |  0.01
Modify  | 30.517     | 30.673     | 30.88      |   2.0 | 17.08
Other   |            | 5.827      |            |       |  3.24

Nlocal:            500 ave         509 max         488 min
Histogram: 1 0 1 0 0 2 1 1 1 1
Nghost:        2349.12 ave        2359 max        2336 min
Histogram: 1 0 0 2 1 0 1 1 0 2
Neighs:        32263.2 ave       35018 max       29900 min
Histogram: 2 0 0 1 1 2 1 0 0 1

Total # of neighbors = 258106
Ave neighs/atom = 64.5265
Neighbor list builds = 648
Dangerous builds = 0
Total wall time: 0:03:19
