LAMMPS (2 Apr 2025)
KOKKOS mode with Kokkos version 4.6.0 is enabled (src/KOKKOS/kokkos.cpp:72)
  will use up to 1 GPU(s) per node
  using 1 OpenMP thread(s) per MPI task
Lattice spacing in x,y,z = 3.924 3.924 3.924
Created orthogonal box = (0 0 0) to (39.24 39.24 39.24)
  2 by 2 by 2 MPI processor grid
Created 4000 atoms
  using lattice units in orthogonal box = (0 0 0) to (39.24 39.24 39.24)
  create_atoms CPU = 0.007 seconds
Reading eam potential file Pt_u3.eam with DATE: 2007-06-11
Neighbor list info ...
  update: every = 1 steps, delay = 0 steps, check = yes
  max neighbors/atom: 2000, page size: 100000
  master list distance cutoff = 7.3
  ghost atom cutoff = 7.3
  binsize = 7.3, bins = 6 6 6
  1 neighbor lists, perpetual/occasional/extra = 1 0 0
  (1) pair eam/kk, perpetual
      attributes: half, newton on, kokkos_device
      pair build: half/bin/newton/kk/device
      stencil: half/bin/3d
      bin: kk/device
Setting up Verlet run ...
  Unit style    : metal
  Current step  : 0
  Time step     : 0.0005
WARNING: Fix STORE/ATOM not compatible with sending data in Kokkos communication (src/KOKKOS/comm_kokkos.cpp:766)
WARNING: Fix with atom-based arrays not compatible with sending data in Kokkos communication, switching to classic exchange/border communication (src/KOKKOS/comm_kokkos.cpp:779)
WARNING: Fix STORE/ATOM not compatible with Kokkos sorting on device (src/KOKKOS/atom_kokkos.cpp:212)
WARNING: Fix with atom-based arrays not compatible with Kokkos sorting on device, switching to classic host sorting (src/KOKKOS/atom_kokkos.cpp:218)
Per MPI rank memory allocation (min/avg/max) = 4.315 | 4.315 | 4.315 Mbytes
   Step          Time           Temp          PotEng         KinEng         Press          Volume        Density        c_Msd[4]   
         0   0              12000         -23079.503      6202.9358      101063.07      60420.873      21.446531      0            
      1000   0.5            11470.472     -16974.459      5929.2167      1002863.7      55496.123      23.349706      3.4171625    
      2000   1              12035.985     -17072.316      6221.5367      988267.44      55687.472      23.269473      7.7296313    
      3000   1.5            11804.987     -16937.8        6102.1314      995853.74      55736.852      23.248858      12.636635    
      4000   2              11967.504     -16964.958      6186.1385      992629.74      55826.524      23.211514      17.326637    
      5000   2.5            12188.232     -16943.371      6300.2352      999387.91      55760.057      23.239183      22.009546    
      6000   3              11939.031     -16952.401      6171.4201      998282.99      55713.856      23.258454      26.568088    
      7000   3.5            12003.522     -16842.68       6204.7565      1018141.2      55586.295      23.311828      31.09012     
      8000   4              12211.494     -16992.372      6312.2593      993395.51      55781.829      23.230112      35.972484    
      9000   4.5            12155.136     -16875.487      6283.1275      1007541.8      55765.73       23.236819      40.435404    
     10000   5              11991.38      -16982.811      6198.48        982035.72      55976.021      23.149522      44.654443    
Loop time of 17.6585 on 8 procs for 10000 steps with 4000 atoms

Performance: 24.464 ns/day, 0.981 hours/ns, 566.300 timesteps/s, 2.265 Matom-step/s
179.4% CPU use with 8 MPI tasks x 1 OpenMP threads

MPI task timing breakdown:
Section |  min time  |  avg time  |  max time  |%varavg| %total
---------------------------------------------------------------
Pair    | 9.9544     | 10.102     | 10.249     |   2.9 | 57.21
Neigh   | 0.057672   | 0.058945   | 0.060008   |   0.3 |  0.33
Comm    | 3.6563     | 3.811      | 3.9717     |   5.0 | 21.58
Output  | 0.00093677 | 0.0010529  | 0.0011119  |   0.1 |  0.01
Modify  | 3.0694     | 3.089      | 3.1087     |   0.7 | 17.49
Other   |            | 0.5964     |            |       |  3.38

Nlocal:            500 ave         510 max         489 min
Histogram: 1 1 1 0 0 1 1 1 1 1
Nghost:        2257.88 ave        2266 max        2240 min
Histogram: 1 0 1 0 0 0 0 0 4 2
Neighs:        29086.1 ave       31448 max       27012 min
Histogram: 1 1 1 1 1 0 0 1 1 1

Total # of neighbors = 232689
Ave neighs/atom = 58.17225
Neighbor list builds = 153
Dangerous builds = 0
Setting up Verlet run ...
  Unit style    : metal
  Current step  : 10000
  Time step     : 0.0005
WARNING: Fix STORE/ATOM not compatible with Kokkos sorting on device (src/KOKKOS/atom_kokkos.cpp:212)
WARNING: Fix with atom-based arrays not compatible with Kokkos sorting on device, switching to classic host sorting (src/KOKKOS/atom_kokkos.cpp:218)
Per MPI rank memory allocation (min/avg/max) = 5.509 | 5.509 | 5.509 Mbytes
   Step          Time           Temp          PotEng         KinEng         Press          Volume        Density        c_Msd[4]   
     10000   5              11991.38      -16982.811      6198.48        982035.72      55976.021      23.149522      44.654443    
     11000   5.5            4482.7643     -18345.137      2317.1916      993142.39      51987.737      24.925458      45.163941    
     12000   6              4065.7272     -18534.78       2101.6204      992489.15      51648.96       25.08895       46.06805     
     13000   6.5            3986.0203     -18523.173      2060.419       990679.77      51688.163      25.069921      46.759879    
     14000   7              3963.6443     -18612.275      2048.8526      976514         51757.807      25.036187      47.363815    
     15000   7.5            3938.5438     -18600.944      2035.8779      979561.62      51724.872      25.052129      47.864382    
     16000   8              3978.5821     -18543.937      2056.5741      993333.81      51621.38       25.102354      48.676449    
     17000   8.5            3981.7668     -18508.104      2058.2203      1000264.4      51580.619      25.122191      49.329805    
     18000   9              3961.8652     -18508.004      2047.933       1000186.2      51571.421      25.126671      50.181053    
     19000   9.5            4095.248      -18499.628      2116.8801      999478.68      51612.478      25.106683      50.711255    
     20000   10             3968.3594     -18500.377      2051.2899      999128.62      51610.395      25.107697      51.417589    
     21000   10.5           4074.3981     -18576.366      2106.1025      985444.03      51692.236      25.067946      52.133784    
     22000   11             3974.6813     -18671.715      2054.5577      968529.93      51790.118      25.020568      52.656899    
     23000   11.5           3961.4403     -18539.601      2047.7133      996237.38      51588.076      25.118559      53.248165    
     24000   12             3965.7944     -18467.166      2049.964       1006098.7      51551.343      25.136458      53.920758    
     25000   12.5           3992.4423     -18471.049      2063.7386      1013568.1      51448.696      25.186608      54.560975    
     26000   13             4007.5996     -18504.841      2071.5736      1009148.3      51465.875      25.178201      55.054288    
     27000   13.5           3989.2342     -18464.885      2062.0803      1013355.9      51462.915      25.17965       55.739912    
     28000   14             4094.7104     -18501.955      2116.6021      1008655.9      51486.71       25.168012      56.50129     
     29000   14.5           4057.5533     -18442.819      2097.3952      1022387.6      51376.017      25.222238      56.934997    
     30000   15             4063.7209     -18504.26       2100.5833      1004905.3      51528.808      25.147451      57.393268    
     31000   15.5           4038.9979     -18536.489      2087.8037      997309.17      51580.094      25.122447      58.079489    
     32000   16             4007.7475     -18484.397      2071.65        1008503.8      51503.995      25.159566      58.575601    
     33000   16.5           3953.1795     -18556.228      2043.4432      993863.95      51596.463      25.114476      58.991355    
     34000   17             4061.516      -18567.553      2099.4436      987394.14      51687.641      25.070174      59.677904    
     35000   17.5           4037.6251     -18525.963      2087.0941      996508.4       51607.364      25.109171      60.504934    
     36000   18             3925.8548     -18545.239      2029.3188      998559.6       51540.259      25.141863      60.98364     
     37000   18.5           3927.6619     -18529.57       2030.2529      1001466.1      51522.833      25.150367      61.455457    
     38000   19             3991.8869     -18494.509      2063.4515      1000815        51590.212      25.117519      62.112813    
     39000   19.5           3943.3188     -18473.517      2038.3461      1002581.5      51582.844      25.121107      62.566974    
     40000   20             3935.0853     -18518.518      2034.0901      998109.3       51584.605      25.12025       63.204452    
     41000   20.5           3962.3819     -18513.001      2048.2001      1003568.2      51513.907      25.154725      63.685406    
     42000   21             3961.0066     -18432.786      2047.4891      1015629.6      51478.222      25.172162      64.239549    
     43000   21.5           4041.8191     -18460.114      2089.2621      1013344.7      51470.816      25.175784      64.769855    
     44000   22             4031.1567     -18497.322      2083.7505      1003509.9      51558.904      25.132771      65.401146    
     45000   22.5           4103.8723     -18500.509      2121.3381      1000647.7      51601.497      25.112026      66.187097    
     46000   23             3992.0403     -18537.005      2063.5308      990086.87      51676.144      25.075751      66.993453    
     47000   23.5           4010.4162     -18533.246      2073.0295      995999.67      51598.822      25.113328      67.77929     
     48000   24             4048.8012     -18521.056      2092.8712      997570.88      51598.587      25.113442      68.361793    
     49000   24.5           3999.3208     -18483.71       2067.2942      1004974.2      51547.802      25.138184      68.750306    
     50000   25             4065.8907     -18485.638      2101.7049      1014957        51420.663      25.200339      69.399349    
     51000   25.5           3941.1173     -18440.638      2037.2082      1023074        51351.718      25.234173      70.172818    
     52000   26             3981.1192     -18483.731      2057.8856      1009325.6      51487.488      25.167632      70.586386    
     53000   26.5           4036.39       -18538.336      2086.4557      999273.74      51567.946      25.128365      71.381144    
     54000   27             3942.73       -18622.11       2038.0418      975985.86      51751.694      25.039145      72.063025    
     55000   27.5           4042.575      -18538.843      2089.6528      991915.66      51656.41       25.085331      72.872646    
     56000   28             3999.0559     -18541.386      2067.1573      995906.42      51594.21       25.115573      73.241101    
     57000   28.5           4056.2416     -18511.441      2096.7172      1002846.6      51561.662      25.131427      74.039115    
     58000   29             4030.0445     -18498.08       2083.1756      1009090.7      51473.653      25.174396      74.694162    
     59000   29.5           3995.9832     -18436.752      2065.5689      1023149.3      51364.06       25.22811       75.380339    
     60000   30             4049.5003     -18430.598      2093.2325      1025037.8      51349.399      25.235313      75.904418    
     61000   30.5           4103.0335     -18450.544      2120.9044      1010747.6      51522.02       25.150764      76.748543    
     62000   31             3925.1814     -18492.947      2028.9707      1006106.1      51502.608      25.160243      77.502101    
     63000   31.5           4027.8091     -18512.226      2082.0201      1003142.1      51543.923      25.140076      78.14338     
     64000   32             4006.9828     -18549.888      2071.2548      998125.41      51538.868      25.142542      79.001872    
     65000   32.5           3943.5338     -18529.12       2038.4573      994571.68      51615.297      25.105312      79.606094    
     66000   33             4013.7732     -18603.128      2074.7648      987166.39      51627.653      25.099304      80.186736    
     67000   33.5           3959.5612     -18538.235      2046.742       990305.22      51668.925      25.079255      81.069059    
     68000   34             4033.896      -18595.455      2085.1665      980239.5       51739.519      25.045037      81.765586    
     69000   34.5           3964.0226     -18619.313      2049.0482      982330.36      51668.428      25.079496      82.305319    
     70000   35             3933.698      -18570.313      2033.373       988449.96      51642.163      25.092252      82.856751    
     71000   35.5           4023.361      -18584.763      2079.7209      990144.33      51612.398      25.106723      83.397243    
     72000   36             4007.1892     -18627.808      2071.3614      981529.77      51668.602      25.079412      84.130537    
     73000   36.5           4001.886      -18573.202      2068.6202      988865.32      51646.478      25.090155      84.778124    
     74000   37             3962.116      -18522.77       2048.0626      994728.96      51629.589      25.098363      85.468458    
     75000   37.5           3989.7633     -18504.055      2062.3538      1007582.4      51484.145      25.169266      85.86905     
     76000   38             4054.706      -18504.088      2095.9235      1008061.1      51482.546      25.170048      86.502776    
     77000   38.5           4058.1955     -18431.151      2097.7272      1022231.8      51384.904      25.217876      87.008456    
     78000   39             3918.9221     -18454.633      2025.7352      1013372.8      51457.374      25.182361      87.932745    
     79000   39.5           4012.2456     -18490.906      2073.9751      1004994.4      51548.105      25.138037      88.833261    
     80000   40             4024.2261     -18457.457      2080.168       1019176.1      51396.464      25.212204      89.215661    
     81000   40.5           4015.1826     -18453.175      2075.4933      1016077        51440.251      25.190743      89.934606    
     82000   41             4015.5402     -18390.274      2075.6782      1023803.1      51421.133      25.200109      90.618105    
     83000   41.5           4112.1232     -18455.75       2125.603       1012208.8      51505.87       25.15865       91.191401    
     84000   42             4036.8318     -18422.721      2086.6841      1023673.7      51373.024      25.223708      91.648573    
     85000   42.5           4017.947      -18397.502      2076.9223      1025220.5      51403.425      25.20879       92.10612     
     86000   43             4099.7463     -18488.822      2119.2053      1009899.5      51489.561      25.166619      93.020388    
     87000   43.5           4036.5242     -18448.486      2086.525       1019230.4      51404.865      25.208084      93.409383    
     88000   44             3955.157      -18456.024      2044.4654      1021211.9      51357.162      25.231498      93.894111    
     89000   44.5           3957.3326     -18508.958      2045.59        1000075.6      51572.176      25.126304      94.800136    
     90000   45             4019.1151     -18536.458      2077.5261      997823.33      51571.154      25.126802      95.303739    
     91000   45.5           3920.8427     -18464.305      2026.728       1011387.3      51486.876      25.167931      96.073077    
     92000   46             3943.8932     -18506.321      2038.643       1005344.1      51509.814      25.156724      96.654803    
     93000   46.5           3986.6167     -18492.366      2060.7273      1005963.2      51520.43       25.15154       97.526015    
     94000   47             3928.8623     -18542.207      2030.8734      997758.58      51560.873      25.131812      98.151611    
     95000   47.5           3976.7465     -18519.529      2055.6253      1004883.6      51500.738      25.161157      98.833793    
     96000   48             3991.8599     -18551.802      2063.4376      994540.11      51591.311      25.116984      99.223728    
     97000   48.5           4013.5176     -18675.278      2074.6327      964244.78      51849.939      24.991701      100.62544    
     98000   49             3986.8192     -18555.01       2060.832       991517.88      51636.572      25.094968      101.05365    
     99000   49.5           4022.6633     -18586.647      2079.3602      987463.93      51641.78       25.092438      101.59325    
    100000   50             3972.5052     -18578.778      2053.4329      981808.76      51733.254      25.048069      102.03962    
    101000   50.5           4067.7016     -18582.812      2102.641       983399.5       51705.039      25.061738      102.75984    
    102000   51             4038.5705     -18666.647      2087.5828      963538.45      51862.884      24.985463      103.41479    
    103000   51.5           4050.2118     -18569.044      2093.6003      989090.84      51660.711      25.083243      103.85097    
    104000   52             3988.5928     -18526.731      2061.7488      1001109.3      51549.647      25.137285      104.41167    
    105000   52.5           3925.5957     -18509.548      2029.1849      1001177.1      51552.509      25.135889      104.83067    
    106000   53             3983.1162     -18470.398      2058.9178      1011878.1      51463.744      25.179244      105.6735     
    107000   53.5           3898.3234     -18470.301      2015.0875      1008648.6      51497.433      25.162772      106.30874    
    108000   54             4006.6945     -18503.707      2071.1058      1001218.3      51561.922      25.131301      106.82985    
    109000   54.5           3969.3395     -18526.783      2051.7965      993162.88      51653.473      25.086758      107.08523    
    110000   55             4051.2632     -18564.065      2094.1438      984875.93      51720.328      25.05433       107.74452    
Loop time of 178.809 on 8 procs for 100000 steps with 4000 atoms

Performance: 24.160 ns/day, 0.993 hours/ns, 559.256 timesteps/s, 2.237 Matom-step/s
177.6% CPU use with 8 MPI tasks x 1 OpenMP threads

MPI task timing breakdown:
Section |  min time  |  avg time  |  max time  |%varavg| %total
---------------------------------------------------------------
Pair    | 102.29     | 103.9      | 105.6      |   9.8 | 58.11
Neigh   | 0.29779    | 0.30139    | 0.30579    |   0.6 |  0.17
Comm    | 36.344     | 38.146     | 39.908     |  17.3 | 21.33
Output  | 0.019285   | 0.020766   | 0.023142   |   0.7 |  0.01
Modify  | 30.446     | 30.63      | 30.815     |   2.1 | 17.13
Other   |            | 5.808      |            |       |  3.25

Nlocal:            500 ave         511 max         492 min
Histogram: 1 1 1 1 1 2 0 0 0 1
Nghost:        2352.25 ave        2360 max        2342 min
Histogram: 1 0 1 2 0 0 0 1 1 2
Neighs:        31830.9 ave       34575 max       29588 min
Histogram: 1 1 0 1 3 0 0 1 0 1

Total # of neighbors = 254647
Ave neighs/atom = 63.66175
Neighbor list builds = 793
Dangerous builds = 0
Total wall time: 0:03:18
