LAMMPS (2 Apr 2025)
KOKKOS mode with Kokkos version 4.6.0 is enabled (src/KOKKOS/kokkos.cpp:72)
  will use up to 1 GPU(s) per node
  using 1 OpenMP thread(s) per MPI task
Lattice spacing in x,y,z = 3.924 3.924 3.924
Created orthogonal box = (0 0 0) to (39.24 39.24 39.24)
  2 by 2 by 2 MPI processor grid
Created 4000 atoms
  using lattice units in orthogonal box = (0 0 0) to (39.24 39.24 39.24)
  create_atoms CPU = 0.007 seconds
Reading eam potential file Pt_u3.eam with DATE: 2007-06-11
Neighbor list info ...
  update: every = 1 steps, delay = 0 steps, check = yes
  max neighbors/atom: 2000, page size: 100000
  master list distance cutoff = 7.3
  ghost atom cutoff = 7.3
  binsize = 7.3, bins = 6 6 6
  1 neighbor lists, perpetual/occasional/extra = 1 0 0
  (1) pair eam/kk, perpetual
      attributes: half, newton on, kokkos_device
      pair build: half/bin/newton/kk/device
      stencil: half/bin/3d
      bin: kk/device
Setting up Verlet run ...
  Unit style    : metal
  Current step  : 0
  Time step     : 0.0005
WARNING: Fix STORE/ATOM not compatible with sending data in Kokkos communication (src/KOKKOS/comm_kokkos.cpp:766)
WARNING: Fix with atom-based arrays not compatible with sending data in Kokkos communication, switching to classic exchange/border communication (src/KOKKOS/comm_kokkos.cpp:779)
WARNING: Fix STORE/ATOM not compatible with Kokkos sorting on device (src/KOKKOS/atom_kokkos.cpp:212)
WARNING: Fix with atom-based arrays not compatible with Kokkos sorting on device, switching to classic host sorting (src/KOKKOS/atom_kokkos.cpp:218)
Per MPI rank memory allocation (min/avg/max) = 4.315 | 4.315 | 4.315 Mbytes
   Step          Time           Temp          PotEng         KinEng         Press          Volume        Density        c_Msd[4]   
         0   0              12000         -23079.503      6202.9358      101063.07      60420.873      21.446531      0            
      1000   0.5            11470.472     -16974.459      5929.2167      1002863.7      55496.123      23.349706      3.4171625    
      2000   1              12035.985     -17072.316      6221.5367      988267.44      55687.472      23.269473      7.7296313    
      3000   1.5            11804.987     -16937.8        6102.1314      995853.74      55736.852      23.248858      12.636635    
      4000   2              11967.504     -16964.958      6186.1385      992629.74      55826.524      23.211514      17.326637    
      5000   2.5            12188.233     -16943.373      6300.2358      999387.64      55760.059      23.239182      22.009546    
      6000   3              11922.259     -16968.163      6162.7504      996773.66      55703.601      23.262736      26.543227    
      7000   3.5            12077.841     -16981.874      6243.1727      1001062.1      55663.145      23.279643      31.235094    
      8000   4              12148.134     -16967.983      6279.5079      997748.37      55758.153      23.239976      35.719126    
      9000   4.5            12088.498     -16931.197      6248.6812      996944.14      55836.808      23.207239      39.947929    
     10000   5              12027.336     -16958.154      6217.066       992132.65      55838.476      23.206546      44.865346    
Loop time of 17.7205 on 8 procs for 10000 steps with 4000 atoms

Performance: 24.379 ns/day, 0.984 hours/ns, 564.317 timesteps/s, 2.257 Matom-step/s
179.4% CPU use with 8 MPI tasks x 1 OpenMP threads

MPI task timing breakdown:
Section |  min time  |  avg time  |  max time  |%varavg| %total
---------------------------------------------------------------
Pair    | 9.9553     | 10.124     | 10.277     |   3.1 | 57.13
Neigh   | 0.057687   | 0.058905   | 0.059892   |   0.3 |  0.33
Comm    | 3.6804     | 3.842      | 4.0205     |   5.4 | 21.68
Output  | 0.0010107  | 0.001115   | 0.0011536  |   0.1 |  0.01
Modify  | 3.0795     | 3.0938     | 3.1177     |   0.6 | 17.46
Other   |            | 0.6005     |            |       |  3.39

Nlocal:            500 ave         507 max         494 min
Histogram: 1 1 2 0 0 0 2 0 1 1
Nghost:        2248.88 ave        2258 max        2235 min
Histogram: 1 1 0 0 1 0 1 1 1 2
Neighs:        29060.4 ave       31791 max       26211 min
Histogram: 1 0 0 2 0 2 2 0 0 1

Total # of neighbors = 232483
Ave neighs/atom = 58.12075
Neighbor list builds = 153
Dangerous builds = 0
Setting up Verlet run ...
  Unit style    : metal
  Current step  : 10000
  Time step     : 0.0005
WARNING: Fix STORE/ATOM not compatible with Kokkos sorting on device (src/KOKKOS/atom_kokkos.cpp:212)
WARNING: Fix with atom-based arrays not compatible with Kokkos sorting on device, switching to classic host sorting (src/KOKKOS/atom_kokkos.cpp:218)
Per MPI rank memory allocation (min/avg/max) = 5.509 | 5.509 | 5.509 Mbytes
   Step          Time           Temp          PotEng         KinEng         Press          Volume        Density        c_Msd[4]   
     10000   5              12027.336     -16958.154      6217.066       992132.65      55838.476      23.206546      44.865346    
     11000   5.5            5361.168      -18087.126      2771.2484      1003484.2      52390.531      24.733824      45.571764    
     12000   6              5001.0254     -18239.614      2585.0866      1005389        52071.541      24.885343      46.551345    
     13000   6.5            4984.0416     -18280.912      2576.3075      998019.72      52119.624      24.862385      47.594893    
     14000   7              4890.0112     -18236.56       2527.7021      997630.02      52163.704      24.841376      48.731548    
     15000   7.5            5017.2878     -18226.317      2593.4929      1009207        52030.218      24.905107      49.71455     
     16000   8              4986.998      -18182.354      2577.8357      1010421.6      52081.434      24.880616      51.175232    
     17000   8.5            5032.5007     -18196.501      2601.3566      1018802.6      51946.162      24.945407      52.136726    
     18000   9              5030.798      -18240.059      2600.4764      1010830.4      51976.373      24.930908      53.310502    
     19000   9.5            5266.1068     -18193.186      2722.1102      1010175.2      52118.019      24.863151      54.654247    
     20000   10             5073.6711     -18288.055      2622.638       989392.65      52251.547      24.799613      55.855046    
     21000   10.5           5099.65       -18340.887      2636.0668      975427.85      52372.962      24.742121      57.05921     
     22000   11             5020.9551     -18342.54       2595.3885      979260.58      52298.363      24.777413      57.901272    
     23000   11.5           5001.3622     -18286.503      2585.2608      990270.81      52207.328      24.820618      58.751664    
     24000   12             4972.9472     -18268.755      2570.5727      988304.59      52276.538      24.787757      59.979465    
     25000   12.5           4929.727      -18268.744      2548.2317      994593.9       52163.179      24.841625      60.810253    
     26000   13             4903.6821     -18284.122      2534.7688      990091.03      52210.454      24.819132      61.824577    
     27000   13.5           5001.9638     -18342.924      2585.5717      992109         52112.579      24.865746      62.866372    
     28000   14             4919.3216     -18241.121      2542.853       998746.32      52154.861      24.845587      64.298632    
     29000   14.5           5019.9763     -18242.363      2594.8826      1004286.9      52085.61       24.878621      65.173568    
     30000   15             4975.8136     -18209.103      2572.0544      1011905.1      52022.706      24.908703      66.159942    
     31000   15.5           4907.724      -18185.429      2536.8581      1010393.3      52058.888      24.891391      67.37814     
     32000   16             4968.8055     -18278.393      2568.4318      991425.03      52196.022      24.825995      68.586854    
     33000   16.5           4993.1316     -18314.019      2581.0063      991984.3       52155.018      24.845513      69.303391    
     34000   17             5021.9016     -18368.682      2595.8778      977722.54      52276.851      24.787609      70.236871    
     35000   17.5           5066.7357     -18222.767      2619.053       995022.92      52254.834      24.798053      71.25932     
     36000   18             5057.0922     -18289.261      2614.0682      993195.93      52176.982      24.835054      72.170246    
     37000   18.5           5014.9381     -18262.654      2592.2783      998349.78      52134.476      24.855302      73.090405    
     38000   19             5022.135      -18173.812      2595.9984      1021266.9      51939.577      24.94857       73.893269    
     39000   19.5           4971.9727     -18158.82       2570.069       1016241.7      52034.209      24.903197      74.802163    
     40000   20             4956.7376     -18211.664      2562.1938      1003278.3      52128.52       24.858142      75.843767    
     41000   20.5           5039.5368     -18148.436      2604.9936      1018261.1      52033.03       24.903761      76.854042    
     42000   21             5043.8533     -18129.557      2607.2249      1024631.9      51973.72       24.93218       77.761435    
     43000   21.5           4992.1651     -18204.668      2580.5066      1007930        52085.473      24.878686      79.045028    
     44000   22             5074.8531     -18224.118      2623.249       1010660.4      52026.786      24.90675       80.326139    
     45000   22.5           5107.2419     -18205.545      2639.9911      1012156.9      52042.284      24.899333      81.326787    
     46000   23             5080.0761     -18106.628      2625.9488      1026574.7      51976.343      24.930922      82.301256    
     47000   23.5           5019.2704     -18229.884      2594.5177      1002615.5      52125.409      24.859626      83.606182    
     48000   24             5039.7014     -18201.003      2605.0787      1010275.1      52058.379      24.891635      84.926067    
     49000   24.5           4963.9864     -18142.997      2565.9407      1016099.8      52053.161      24.89413       85.696285    
     50000   25             4953.2463     -18244.629      2560.3891      996471.71      52180.984      24.833149      86.949243    
     51000   25.5           4992.0243     -18358.368      2580.4339      982238.93      52215.393      24.816784      87.766283    
     52000   26             4852.3317     -18253.233      2508.2252      999119.85      52123.505      24.860534      88.771621    
     53000   26.5           4960.1624     -18273.782      2563.9641      988939.02      52259.813      24.795691      90.234019    
     54000   27             4943.9091     -18308.361      2555.5626      984278.34      52261.637      24.794825      91.317806    
     55000   27.5           5070.8463     -18273.883      2621.1778      999121.72      52117.962      24.863178      92.05971     
     56000   28             5027.066      -18341.286      2598.5473      978307.42      52314.785      24.769636      93.050784    
     57000   28.5           4989.2582     -18301.294      2579.0041      984142.22      52290.553      24.781114      93.999989    
     58000   29             5015.9418     -18272.722      2592.7971      990175.25      52251.439      24.799664      95.127552    
     59000   29.5           4942.3594     -18286.699      2554.7615      987626.12      52251.465      24.799652      95.819819    
     60000   30             4960.9585     -18289.946      2564.3756      997758.88      52091.843      24.875644      96.510268    
     61000   30.5           4920.3373     -18201.008      2543.3781      1005965.4      52113.767      24.865179      97.054691    
     62000   31             5022.0445     -18264.641      2595.9517      990842.79      52240.513      24.804851      98.599756    
     63000   31.5           4965.0736     -18309.535      2566.5028      985108.25      52260.046      24.79558       99.494051    
     64000   32             5118.1514     -18296.755      2645.6304      989380.99      52241.515      24.804375      100.42158    
     65000   32.5           4990.9531     -18261.801      2579.8802      992729.92      52224.101      24.812647      101.71165    
     66000   33             4926.8742     -18379.469      2546.757       967262.03      52390.219      24.733971      103.10686    
     67000   33.5           5044.9455     -18248.109      2607.7895      996722.39      52195.485      24.82625       103.9302     
     68000   34             5031.2804     -18297.881      2600.7258      991038.97      52199.139      24.824512      105.00344    
     69000   34.5           4964.7386     -18262.654      2566.3296      1000584.2      52095.105      24.874087      106.03878    
     70000   35             5093.2034     -18292.81       2632.7345      988194.23      52255.706      24.797639      107.06415    
     71000   35.5           4904.9534     -18260.904      2535.4259      990479.36      52243.421      24.803471      107.9296     
     72000   36             4966.3608     -18349.198      2567.1681      976365.1       52314.954      24.769555      108.93463    
     73000   36.5           5003.057      -18300.124      2586.1368      985346.46      52275.086      24.788446      110.32632    
     74000   37             4922.5368     -18266.399      2544.515       987894.87      52269.567      24.791063      111.3673     
     75000   37.5           4920.7459     -18413.517      2543.5893      963623.17      52402.143      24.728343      113.05904    
     76000   38             4926.7217     -18292.483      2546.6782      988237.37      52226.504      24.811505      114.17208    
     77000   38.5           4965.1269     -18325.617      2566.5303      984526.31      52231.918      24.808933      115.66702    
     78000   39             4927.7629     -18312.257      2547.2164      981786.29      52288.33       24.782168      116.6769     
     79000   39.5           4927.3624     -18337.5        2547.0094      973701.9       52370.127      24.74346       117.84182    
     80000   40             4944.5218     -18304.179      2555.8793      990577.34      52180.404      24.833425      118.67649    
     81000   40.5           4991.0489     -18310.692      2579.9297      990974.27      52164.456      24.841017      119.62489    
     82000   41             5064.7305     -18364.201      2618.0165      977270.07      52284.05       24.784196      120.52975    
     83000   41.5           5107.0291     -18254.816      2639.8812      990984.37      52273.68       24.789113      121.48599    
     84000   42             5041.9709     -18277.607      2606.2518      992072.68      52211.834      24.818476      122.35711    
     85000   42.5           4919.6453     -18248.963      2543.0204      994804.62      52188.453      24.829595      123.61415    
     86000   43             5012.9829     -18183.281      2591.2676      1017222.4      51987.217      24.925707      124.34516    
     87000   43.5           5115.1978     -18119.899      2644.1036      1030396.7      51903.177      24.966066      125.29633    
     88000   44             4914.0989     -18190.878      2540.1533      1014321.7      51993.413      24.922737      126.30919    
     89000   44.5           5100.5506     -18235.399      2636.5324      1006684        52075.743      24.883335      127.39686    
     90000   45             4971.3544     -18100.296      2569.7494      1025690        51979.609      24.929355      128.28266    
     91000   45.5           5138.1003     -18158.855      2655.9422      1021154.2      51984.413      24.927052      129.15727    
     92000   46             4955.8096     -18267.953      2561.7141      1001669.4      52072.878      24.884704      130.46879    
     93000   46.5           4960.7675     -18299.322      2564.2769      985685.19      52266.278      24.792624      131.24089    
     94000   47             4957.8715     -18312.541      2562.7799      984834.92      52246.871      24.801833      132.24942    
     95000   47.5           5030.5449     -18238.509      2600.3456      996538.33      52204.991      24.821729      133.71999    
     96000   48             4865.192      -18258.949      2514.8728      996381.23      52143.558      24.850973      134.81387    
     97000   48.5           5076.0412     -18280.172      2623.8632      998920.72      52108.625      24.867633      135.87657    
     98000   49             4987.5525     -18189.745      2578.1223      1005938.9      52135.963      24.854593      136.65864    
     99000   49.5           4976.8616     -18286.222      2572.5961      998073.02      52112.559      24.865755      137.15005    
    100000   50             5037.1498     -18237.441      2603.7597      997615.94      52194.26       24.826833      138.24001    
    101000   50.5           4974.4745     -18196.66       2571.3622      1005833.9      52127.822      24.858475      139.16518    
    102000   51             4971.856      -18229.307      2570.0087      1003832.1      52094.51       24.874371      140.58481    
    103000   51.5           4981.4708     -18235.153      2574.9787      1000528.3      52147.85       24.848928      142.11558    
    104000   52             4890.7612     -18270.417      2528.0898      995064.77      52152.433      24.846744      142.99853    
    105000   52.5           4969.268      -18199.949      2568.6709      1011695.1      52036.456      24.902121      144.09016    
    106000   53             4931.7102     -18178.631      2549.2568      1022133.3      51907.166      24.964148      144.79781    
    107000   53.5           4955.1008     -18201.501      2561.3477      1005606.3      52112.778      24.865651      146.42479    
    108000   54             4938.2635     -18110.109      2552.6443      1024354.2      51982.01       24.928204      147.1518     
    109000   54.5           5057.7965     -18154.241      2614.4323      1025203.6      51917.341      24.959255      147.92452    
    110000   55             5125.2914     -18167.552      2649.3211      1021953        51963.392      24.937135      149.0814     
Loop time of 178.78 on 8 procs for 100000 steps with 4000 atoms

Performance: 24.164 ns/day, 0.993 hours/ns, 559.348 timesteps/s, 2.237 Matom-step/s
177.9% CPU use with 8 MPI tasks x 1 OpenMP threads

MPI task timing breakdown:
Section |  min time  |  avg time  |  max time  |%varavg| %total
---------------------------------------------------------------
Pair    | 101.91     | 103.54     | 105.19     |   9.7 | 57.91
Neigh   | 0.34321    | 0.3486     | 0.3537     |   0.7 |  0.19
Comm    | 36.528     | 38.279     | 40.022     |  16.9 | 21.41
Output  | 0.020357   | 0.021404   | 0.022249   |   0.4 |  0.01
Modify  | 30.596     | 30.719     | 30.951     |   1.9 | 17.18
Other   |            | 5.871      |            |       |  3.28

Nlocal:            500 ave         506 max         493 min
Histogram: 1 1 0 1 0 0 2 2 0 1
Nghost:           2330 ave        2339 max        2324 min
Histogram: 2 1 1 1 0 0 1 0 1 1
Neighs:        31384.8 ave       34761 max       28408 min
Histogram: 1 1 0 2 1 1 0 1 0 1

Total # of neighbors = 251078
Ave neighs/atom = 62.7695
Neighbor list builds = 920
Dangerous builds = 0
Total wall time: 0:03:18
