LAMMPS (2 Apr 2025)
KOKKOS mode with Kokkos version 4.6.0 is enabled (src/KOKKOS/kokkos.cpp:72)
  will use up to 1 GPU(s) per node
  using 1 OpenMP thread(s) per MPI task
Lattice spacing in x,y,z = 3.924 3.924 3.924
Created orthogonal box = (0 0 0) to (39.24 39.24 39.24)
  2 by 2 by 2 MPI processor grid
Created 4000 atoms
  using lattice units in orthogonal box = (0 0 0) to (39.24 39.24 39.24)
  create_atoms CPU = 0.006 seconds
Reading eam potential file Pt_u3.eam with DATE: 2007-06-11
Neighbor list info ...
  update: every = 1 steps, delay = 0 steps, check = yes
  max neighbors/atom: 2000, page size: 100000
  master list distance cutoff = 7.3
  ghost atom cutoff = 7.3
  binsize = 7.3, bins = 6 6 6
  1 neighbor lists, perpetual/occasional/extra = 1 0 0
  (1) pair eam/kk, perpetual
      attributes: half, newton on, kokkos_device
      pair build: half/bin/newton/kk/device
      stencil: half/bin/3d
      bin: kk/device
Setting up Verlet run ...
  Unit style    : metal
  Current step  : 0
  Time step     : 0.0005
WARNING: Fix STORE/ATOM not compatible with sending data in Kokkos communication (src/KOKKOS/comm_kokkos.cpp:766)
WARNING: Fix with atom-based arrays not compatible with sending data in Kokkos communication, switching to classic exchange/border communication (src/KOKKOS/comm_kokkos.cpp:779)
WARNING: Fix STORE/ATOM not compatible with Kokkos sorting on device (src/KOKKOS/atom_kokkos.cpp:212)
WARNING: Fix with atom-based arrays not compatible with Kokkos sorting on device, switching to classic host sorting (src/KOKKOS/atom_kokkos.cpp:218)
Per MPI rank memory allocation (min/avg/max) = 4.315 | 4.315 | 4.315 Mbytes
   Step          Time           Temp          PotEng         KinEng         Press          Volume        Density        c_Msd[4]   
         0   0              12000         -23079.503      6202.9358      101063.07      60420.873      21.446531      0            
      1000   0.5            11470.472     -16974.459      5929.2167      1002863.7      55496.123      23.349706      3.4171625    
      2000   1              12035.985     -17072.316      6221.5367      988267.44      55687.472      23.269473      7.7296313    
      3000   1.5            11804.987     -16937.8        6102.1314      995853.74      55736.852      23.248858      12.636635    
      4000   2              11967.504     -16964.958      6186.1385      992629.74      55826.524      23.211514      17.326637    
      5000   2.5            12188.233     -16943.373      6300.2357      999387.74      55760.059      23.239182      22.009546    
      6000   3              11922.254     -16968.144      6162.7479      996777.25      55703.564      23.262751      26.543218    
      7000   3.5            11962.188     -16891.692      6183.3903      1010702.7      55621.13       23.297228      31.177939    
      8000   4              11963.977     -16860.807      6184.3152      1017845.1      55563.359      23.321451      35.832829    
      9000   4.5            12186.343     -16947.954      6299.2588      999566.56      55765.086      23.237087      40.258266    
     10000   5              12111.694     -16932.501      6260.6717      1003531.8      55687.392      23.269507      44.471809    
Loop time of 17.7012 on 8 procs for 10000 steps with 4000 atoms

Performance: 24.405 ns/day, 0.983 hours/ns, 564.933 timesteps/s, 2.260 Matom-step/s
179.4% CPU use with 8 MPI tasks x 1 OpenMP threads

MPI task timing breakdown:
Section |  min time  |  avg time  |  max time  |%varavg| %total
---------------------------------------------------------------
Pair    | 9.9681     | 10.128     | 10.29      |   3.0 | 57.22
Neigh   | 0.058078   | 0.059276   | 0.060492   |   0.3 |  0.33
Comm    | 3.6597     | 3.8318     | 4.0067     |   5.2 | 21.65
Output  | 0.00097701 | 0.0012529  | 0.0014272  |   0.4 |  0.01
Modify  | 3.0656     | 3.0861     | 3.1026     |   0.7 | 17.43
Other   |            | 0.5949     |            |       |  3.36

Nlocal:            500 ave         508 max         493 min
Histogram: 2 0 1 0 2 0 0 0 2 1
Nghost:        2238.25 ave        2248 max        2231 min
Histogram: 2 1 1 0 0 1 0 2 0 1
Neighs:        28988.8 ave       32097 max       25990 min
Histogram: 1 0 1 1 1 2 1 0 0 1

Total # of neighbors = 231910
Ave neighs/atom = 57.9775
Neighbor list builds = 154
Dangerous builds = 0
Setting up Verlet run ...
  Unit style    : metal
  Current step  : 10000
  Time step     : 0.0005
WARNING: Fix STORE/ATOM not compatible with Kokkos sorting on device (src/KOKKOS/atom_kokkos.cpp:212)
WARNING: Fix with atom-based arrays not compatible with Kokkos sorting on device, switching to classic host sorting (src/KOKKOS/atom_kokkos.cpp:218)
Per MPI rank memory allocation (min/avg/max) = 5.509 | 5.509 | 5.509 Mbytes
   Step          Time           Temp          PotEng         KinEng         Press          Volume        Density        c_Msd[4]   
     10000   5              12111.694     -16932.501      6260.6717      1003531.8      55687.392      23.269507      44.471809    
     11000   5.5            6349.712      -17913.214      3282.238       994056.46      52978.607      24.459272      45.932563    
     12000   6              5866.8522     -17941.723      3032.6423      1013008.7      52566.464      24.651043      47.07523     
     13000   6.5            5943.5041     -17989.972      3072.2646      1003315.9      52639.669      24.616761      48.779972    
     14000   7              5916.0678     -18096.36       3058.0824      979422.05      52836.465      24.525073      50.220809    
     15000   7.5            5962.3774     -18060.832      3082.0204      981805.02      52868.324      24.510294      51.646498    
     16000   8              6141.9973     -17985.25       3174.8679      993410.13      52828.233      24.528895      53.367307    
     17000   8.5            5911.3584     -17999.173      3055.6481      996774.13      52727.849      24.575593      54.502178    
     18000   9              6031.0732     -18109.721      3117.53        973213.02      52938.963      24.477589      56.235138    
     19000   9.5            6057.4344     -18092.229      3131.1564      976719.13      52906.92       24.492413      57.552798    
     20000   10             6050.3537     -17989.586      3127.4963      994536.37      52795.783      24.543971      59.02641     
     21000   10.5           6086.4462     -18091.728      3146.1529      968994.87      53027.232      24.436843      60.457028    
     22000   11             5947.4785     -18082.881      3074.319       981787.56      52837.674      24.524512      61.662786    
     23000   11.5           6024.887      -18023.647      3114.3323      991964.35      52793.255      24.545146      63.19355     
     24000   12             6025.1349     -17932.569      3114.4605      1015624.3      52573.658      24.64767       64.543884    
     25000   12.5           6126.4255     -17967.984      3166.8187      1013313.9      52562.883      24.652722      66.14702     
     26000   13             5893.3462     -18013.452      3046.3374      1003746.1      52591.23       24.639434      67.728605    
     27000   13.5           5972.0994     -17977.522      3087.0458      1011291.6      52557.431      24.65528       68.53654     
     28000   14             5973.7799     -17974.327      3087.9144      1007846.7      52622.146      24.624958      70.316571    
     29000   14.5           6027.3394     -17925.657      3115.6         1012160.5      52645.631      24.613973      72.062016    
     30000   15             6043.7968     -17975.278      3124.107       1003553.5      52681.494      24.597217      73.426319    
     31000   15.5           6035.7412     -18023.209      3119.943       1001314.6      52654.233      24.609952      75.245108    
     32000   16             5934.7568     -18024.966      3067.743       998668.8       52654.672      24.609747      76.70377     
     33000   16.5           6003.4169     -18026.769      3103.2342      1001210.9      52636.502      24.618242      78.007695    
     34000   17             6039.1517     -17981.387      3121.7059      996605.2       52788.648      24.547288      79.768939    
     35000   17.5           5982.7776     -18108.749      3092.5655      983014.54      52780.842      24.550919      81.225969    
     36000   18             5860.9156     -18050.315      3029.5736      992832.51      52685.651      24.595276      82.81302     
     37000   18.5           6078.3938     -18051.914      3141.9906      996781.85      52661.605      24.606507      84.174442    
     38000   19             5950.7913     -18069.022      3076.0314      982508.04      52838.626      24.52407       85.999797    
     39000   19.5           5898.6258     -18042.738      3049.0664      982959         52876.767      24.50638       87.544656    
     40000   20             5913.1419     -18022.053      3056.57        986622.49      52835.326      24.525602      89.03678     
     41000   20.5           5901.7092     -18022.777      3050.6603      990173.29      52793.791      24.544897      90.068374    
     42000   21             6014.357      -18080.408      3108.8892      977741.34      52912.546      24.489809      91.778363    
     43000   21.5           5926.0921     -18076.606      3063.2641      978742.47      52885.628      24.502274      93.721448    
     44000   22             6057.7187     -17998.872      3131.3033      999680.17      52711.985      24.582989      95.103641    
     45000   22.5           6032.17       -17935.573      3118.097       1013540.2      52613.275      24.62911       96.295015    
     46000   23             6061.8878     -17911.577      3133.4584      1016670.7      52593.25       24.638488      97.443608    
     47000   23.5           6029.7994     -17912.766      3116.8715      1015110.7      52609.915      24.630683      99.008021    
     48000   24             6101.2772     -17984.774      3153.8193      1002636.7      52700.823      24.588196      100.58592    
     49000   24.5           5922.2102     -17975.997      3061.2575      1007774.1      52597.607      24.636447      101.73183    
     50000   25             6097.8634     -17967.797      3152.0546      1015037.6      52523.906      24.671017      103.02051    
     51000   25.5           6004.92       -17924.548      3104.0111      1020518.6      52510.701      24.677221      104.60758    
     52000   26             6147.2585     -18002.994      3177.5875      1003699.8      52657.205      24.608563      106.37786    
     53000   26.5           6040.7032     -17963.653      3122.5079      1011701        52586.934      24.641447      107.70389    
     54000   27             6004.2953     -17914.879      3103.6882      1017413        52560.626      24.653781      109.232      
     55000   27.5           6033.0303     -17968.982      3118.5417      1011613.1      52570.851      24.648986      110.33732    
     56000   28             6018.8212     -18008.951      3111.1968      998854.91      52695.916      24.590485      111.94714    
     57000   28.5           6063.0163     -17997.154      3134.0417      1001405.1      52691.408      24.592589      113.39511    
     58000   29             5934.1421     -17949.673      3067.4252      1007482.4      52633.29       24.619744      115.08612    
     59000   29.5           5841.6545     -17997.722      3019.6174      1002566.3      52636.443      24.61827       116.93256    
     60000   30             6143.8434     -17885.358      3175.8222      1021755.1      52568.462      24.650106      118.09969    
     61000   30.5           6066.0979     -17989.877      3135.6347      998846.81      52736.656      24.571489      119.70087    
     62000   31             5929.6346     -17991.576      3065.0952      993933.26      52789.477      24.546902      120.63925    
     63000   31.5           5947.1292     -17977.881      3074.1384      998572.18      52753.531      24.563629      122.20777    
     64000   32             6007.2258     -18114.551      3105.203       975861.45      52882.78       24.503594      123.94621    
     65000   32.5           6024.7763     -18070.842      3114.2751      985863.6       52809.334      24.537673      125.24474    
     66000   33             5961.1985     -17987.134      3081.411       1009430.5      52570.229      24.649277      126.26024    
     67000   33.5           5972.6033     -17868.479      3087.3063      1021507.4      52573.218      24.647876      128.25524    
     68000   34             6138.4941     -18029.975      3173.0571      996183.94      52727.719      24.575654      130.09401    
     69000   34.5           5933.7836     -18007.673      3067.2399      1002047.3      52646.68       24.613483      131.466      
     70000   35             6011.7452     -18025.159      3107.5391      998848.31      52675.721      24.599913      133.4802     
     71000   35.5           6048.2661     -17952.886      3126.4172      1005692.1      52702.976      24.587191      134.96311    
     72000   36             5963.0312     -17946.049      3082.3583      1010626        52611.967      24.629723      136.45958    
     73000   36.5           5993.6542     -17959.893      3098.1877      1009050.6      52618.806      24.626521      138.06579    
     74000   37             5854.168      -17970.178      3026.0857      1003772.7      52658.158      24.608118      139.39305    
     75000   37.5           6080.0916     -17970.648      3142.8682      1002313.6      52716.596      24.580839      141.02597    
     76000   38             5976.0041     -17845.46       3089.0642      1015591.1      52694.12       24.591324      142.26677    
     77000   38.5           5974.2866     -17978.991      3088.1764      1011107        52552.496      24.657595      143.60326    
     78000   39             5948.9207     -17933.797      3075.0645      1013400.8      52592.18       24.638989      145.13035    
     79000   39.5           5967.8345     -17942.125      3084.8412      1012100        52607.09       24.632006      146.19218    
     80000   40             5806.7753     -17968.895      3001.5879      1006123.2      52614.252      24.628653      147.98238    
     81000   40.5           6098.9436     -17989.992      3152.613       1011443.2      52558.725      24.654672      149.53198    
     82000   41             6017.5521     -17892.033      3110.5408      1028163.6      52450.109      24.705729      150.45068    
     83000   41.5           5965.4337     -17972.509      3083.6002      1009847.6      52560.334      24.653918      152.20535    
     84000   42             6106.0582     -18023.764      3156.2906      997643.14      52705.967      24.585796      153.9332     
     85000   42.5           5970.6299     -18140.737      3086.2862      974868.98      52845.587      24.520839      155.63648    
     86000   43             6003.811      -18043.16       3103.4379      994761.73      52703.888      24.586766      156.79258    
     87000   43.5           6090.5098     -18035.688      3148.2534      997733.12      52685.288      24.595446      158.34314    
     88000   44             6000.7059     -18019.8        3101.8328      1005452.2      52588.238      24.640836      159.67269    
     89000   44.5           5996.5879     -17993.985      3099.7042      1003273.1      52666.418      24.604258      161.30909    
     90000   45             5944.5295     -17929.423      3072.7946      1016715        52551.22       24.658193      161.9921     
     91000   45.5           6189.783      -17905.479      3199.5689      1021791.6      52553.33       24.657203      163.02891    
     92000   46             5903.6465     -18025.391      3051.6617      996988.08      52694.803      24.591005      165.20246    
     93000   46.5           6070.1478     -18086.534      3137.7281      988677.72      52740.61       24.569647      166.83277    
     94000   47             5961.6297     -18108.726      3081.6339      977104.27      52868.838      24.510055      168.52904    
     95000   47.5           5997.1955     -18143.312      3100.0182      971991.77      52886.057      24.502075      169.99291    
     96000   48             5959.0224     -18017.711      3080.2862      994748.06      52744.477      24.567846      171.20795    
     97000   48.5           5959.8904     -17965.054      3080.7348      1005742.7      52652.303      24.610854      172.60891    
     98000   49             6162.7387     -17974.786      3185.5894      1006389.2      52665.984      24.604461      174.03644    
     99000   49.5           5991.6717     -17949.109      3097.1629      1013036.1      52584.676      24.642505      175.31471    
    100000   50             6051.4879     -17939.643      3128.0826      1012484        52615.304      24.628161      177.04464    
    101000   50.5           5896.6386     -17833.73       3048.0392      1021539.6      52603.886      24.633506      178.85576    
    102000   51             6061.8902     -17961.865      3133.4597      1013984.7      52554.821      24.656504      180.05211    
    103000   51.5           6080.2035     -17990.424      3142.926       1009326.1      52577.802      24.645727      181.22939    
    104000   52             5978.1469     -17892.27       3090.1718      1023840.1      52514.663      24.675359      182.81832    
    105000   52.5           5979.9902     -17874.023      3091.1246      1030332.9      52434.045      24.713297      184.3406     
    106000   53             6102.1611     -17947.39       3154.2762      1009978.4      52637.605      24.617726      186.69293    
    107000   53.5           5946.4585     -17933.465      3073.7917      1010909.1      52627.142      24.622621      187.51483    
    108000   54             5944.6718     -18038.065      3072.8681      989249.89      52794.657      24.544494      189.0619     
    109000   54.5           6058.991      -18016.439      3131.961       991620.39      52801.545      24.541292      190.43094    
    110000   55             6003.8366     -17967.2        3103.4511      1003475.6      52709.299      24.584242      192.2068     
Loop time of 178.398 on 8 procs for 100000 steps with 4000 atoms

Performance: 24.216 ns/day, 0.991 hours/ns, 560.546 timesteps/s, 2.242 Matom-step/s
178.1% CPU use with 8 MPI tasks x 1 OpenMP threads

MPI task timing breakdown:
Section |  min time  |  avg time  |  max time  |%varavg| %total
---------------------------------------------------------------
Pair    | 101.59     | 103.23     | 104.98     |   9.7 | 57.86
Neigh   | 0.38483    | 0.39011    | 0.39635    |   0.8 |  0.22
Comm    | 36.394     | 38.258     | 40.038     |  17.2 | 21.45
Output  | 0.018792   | 0.02048    | 0.023313   |   0.9 |  0.01
Modify  | 30.448     | 30.662     | 30.827     |   2.2 | 17.19
Other   |            | 5.839      |            |       |  3.27

Nlocal:            500 ave         517 max         486 min
Histogram: 1 0 1 1 3 1 0 0 0 1
Nghost:        2321.38 ave        2334 max        2303 min
Histogram: 1 0 0 0 1 1 3 0 1 1
Neighs:        30913.2 ave       33729 max       28418 min
Histogram: 2 0 1 0 0 2 1 1 0 1

Total # of neighbors = 247306
Ave neighs/atom = 61.8265
Neighbor list builds = 1034
Dangerous builds = 0
Total wall time: 0:03:17
