LAMMPS (2 Apr 2025)
KOKKOS mode with Kokkos version 4.6.0 is enabled (src/KOKKOS/kokkos.cpp:72)
  will use up to 1 GPU(s) per node
  using 1 OpenMP thread(s) per MPI task
Lattice spacing in x,y,z = 3.924 3.924 3.924
Created orthogonal box = (0 0 0) to (39.24 39.24 39.24)
  2 by 2 by 2 MPI processor grid
Created 4000 atoms
  using lattice units in orthogonal box = (0 0 0) to (39.24 39.24 39.24)
  create_atoms CPU = 0.008 seconds
Reading eam potential file Pt_u3.eam with DATE: 2007-06-11
Neighbor list info ...
  update: every = 1 steps, delay = 0 steps, check = yes
  max neighbors/atom: 2000, page size: 100000
  master list distance cutoff = 7.3
  ghost atom cutoff = 7.3
  binsize = 7.3, bins = 6 6 6
  1 neighbor lists, perpetual/occasional/extra = 1 0 0
  (1) pair eam/kk, perpetual
      attributes: half, newton on, kokkos_device
      pair build: half/bin/newton/kk/device
      stencil: half/bin/3d
      bin: kk/device
Setting up Verlet run ...
  Unit style    : metal
  Current step  : 0
  Time step     : 0.0005
WARNING: Fix STORE/ATOM not compatible with sending data in Kokkos communication (src/KOKKOS/comm_kokkos.cpp:766)
WARNING: Fix with atom-based arrays not compatible with sending data in Kokkos communication, switching to classic exchange/border communication (src/KOKKOS/comm_kokkos.cpp:779)
WARNING: Fix STORE/ATOM not compatible with Kokkos sorting on device (src/KOKKOS/atom_kokkos.cpp:212)
WARNING: Fix with atom-based arrays not compatible with Kokkos sorting on device, switching to classic host sorting (src/KOKKOS/atom_kokkos.cpp:218)
Per MPI rank memory allocation (min/avg/max) = 4.315 | 4.315 | 4.315 Mbytes
   Step          Time           Temp          PotEng         KinEng         Press          Volume        Density        c_Msd[4]   
         0   0              12000         -23079.503      6202.9358      101063.07      60420.873      21.446531      0            
      1000   0.5            11470.472     -16974.459      5929.2167      1002863.7      55496.123      23.349706      3.4171625    
      2000   1              12035.985     -17072.316      6221.5367      988267.44      55687.472      23.269473      7.7296313    
      3000   1.5            11804.987     -16937.8        6102.1314      995853.74      55736.852      23.248858      12.636635    
      4000   2              11967.504     -16964.958      6186.1385      992629.74      55826.524      23.211514      17.326637    
      5000   2.5            12188.234     -16943.373      6300.2362      999387.73      55760.058      23.239182      22.009545    
      6000   3              11922.265     -16968.156      6162.7537      996775.44      55703.576      23.262746      26.543194    
      7000   3.5            12030.888     -16926.959      6218.9021      1010483.4      55569.185      23.319006      31.075749    
      8000   4              12201.815     -17008.048      6307.2564      988388.21      55838.057      23.20672       36.122899    
      9000   4.5            12302.98      -16862.624      6359.5497      1010418.8      55772.555      23.233975      40.402363    
     10000   5              12205.243     -16922.97       6309.0283      1008967.2      55641.506      23.288696      44.943296    
Loop time of 17.7974 on 8 procs for 10000 steps with 4000 atoms

Performance: 24.273 ns/day, 0.989 hours/ns, 561.879 timesteps/s, 2.248 Matom-step/s
179.5% CPU use with 8 MPI tasks x 1 OpenMP threads

MPI task timing breakdown:
Section |  min time  |  avg time  |  max time  |%varavg| %total
---------------------------------------------------------------
Pair    | 9.986      | 10.158     | 10.318     |   3.3 | 57.07
Neigh   | 0.058416   | 0.059536   | 0.060487   |   0.3 |  0.33
Comm    | 3.7133     | 3.8853     | 4.0683     |   5.6 | 21.83
Output  | 0.0009428  | 0.00098883 | 0.0010346  |   0.0 |  0.01
Modify  | 3.0784     | 3.0941     | 3.1099     |   0.5 | 17.39
Other   |            | 0.5998     |            |       |  3.37

Nlocal:            500 ave         513 max         491 min
Histogram: 1 0 3 0 2 1 0 0 0 1
Nghost:        2259.75 ave        2280 max        2244 min
Histogram: 2 0 2 1 0 0 1 0 1 1
Neighs:        29079.1 ave       31691 max       27596 min
Histogram: 2 1 0 2 1 0 1 0 0 1

Total # of neighbors = 232633
Ave neighs/atom = 58.15825
Neighbor list builds = 154
Dangerous builds = 0
Setting up Verlet run ...
  Unit style    : metal
  Current step  : 10000
  Time step     : 0.0005
WARNING: Fix STORE/ATOM not compatible with Kokkos sorting on device (src/KOKKOS/atom_kokkos.cpp:212)
WARNING: Fix with atom-based arrays not compatible with Kokkos sorting on device, switching to classic host sorting (src/KOKKOS/atom_kokkos.cpp:218)
Per MPI rank memory allocation (min/avg/max) = 5.509 | 5.509 | 5.509 Mbytes
   Step          Time           Temp          PotEng         KinEng         Press          Volume        Density        c_Msd[4]   
     10000   5              12205.243     -16922.97       6309.0283      1008967.2      55641.506      23.288696      44.943296    
     11000   5.5            7344.3617     -17671.684      3796.3837      1007826.4      53354.985      24.286731      46.885202    
     12000   6              7057.4167     -17728.697      3648.0586      1017424.8      53059.402      24.422027      48.603221    
     13000   6.5            6947.3146     -17817.817      3591.1455      996321.83      53229.069      24.344182      50.725931    
     14000   7              6976.8746     -17914.997      3606.4255      981387.06      53291.195      24.315802      52.716376    
     15000   7.5            6945.6696     -17856.516      3590.2952      990205.52      53256.734      24.331536      54.868825    
     16000   8              7011.2008     -17868.636      3624.1691      979259.09      53408.655      24.262325      57.152723    
     17000   8.5            6938.2676     -17859.957      3586.4691      988705.61      53281.029      24.320442      59.231056    
     18000   9              7070.4041     -17850.105      3654.7719      992755.28      53246.053      24.336417      61.281876    
     19000   9.5            7101.6398     -17770.963      3670.918       1004837.7      53205.68       24.354884      62.840336    
     20000   10             7106.6435     -17751.18       3673.5045      1000996.7      53278.739      24.321487      65.359248    
     21000   10.5           7104.4042     -17841.135      3672.3469      984409.81      53400.386      24.266082      67.413578    
     22000   11             7079.0311     -17789.762      3659.2313      996137.64      53297.877      24.312754      68.998966    
     23000   11.5           6915.0318     -17761.077      3574.4582      1000535.1      53227.013      24.345123      71.252421    
     24000   12             6914.1164     -17857.041      3573.985       982448.95      53368.707      24.280486      73.448873    
     25000   12.5           6845.2272     -17846.95       3538.3754      992483.73      53203.528      24.355869      75.662437    
     26000   13             6908.4799     -17847.88       3571.0715      996557.24      53170.593      24.370955      77.342493    
     27000   13.5           6998.3274     -17824.704      3617.5146      991281.79      53300.149      24.311717      79.415653    
     28000   14             6938.0627     -17880.104      3586.3631      980052.95      53360.596      24.284177      81.506474    
     29000   14.5           6990.7203     -17752.166      3613.5824      995288.49      53347.437      24.290167      83.371736    
     30000   15             7062.0784     -17765.237      3650.4683      999949.65      53275.529      24.322952      84.94433     
     31000   15.5           7089.5706     -17827.556      3664.6793      992498.72      53288.528      24.317019      86.903468    
     32000   16             7043.2441     -17801.317      3640.7326      1006735.9      53104.84       24.401131      88.611137    
     33000   16.5           6890.737      -17802.49       3561.9         1004411.6      53102.984      24.401984      90.487862    
     34000   17             7055.9309     -17663.758      3647.2906      1019412.5      53147.961      24.381333      92.884359    
     35000   17.5           7089.1471     -17662.676      3664.4604      1017030.6      53188.795      24.362615      94.547633    
     36000   18             6999.1953     -17647.107      3617.9633      1031588.2      52961.849      24.467011      96.163987    
     37000   18.5           6966.3535     -17744.648      3600.987       1012443.4      53107.001      24.400138      98.272421    
     38000   19             7184.6143     -17758.917      3713.8085      1004606.9      53212.707      24.351668      100.41192    
     39000   19.5           7060.4513     -17710.308      3649.6272      1021693        53013.02       24.443394      102.5488     
     40000   20             6917.6901     -17642.163      3575.8323      1033416        52933.225      24.480242      104.24892    
     41000   20.5           7073.568      -17736.023      3656.4074      1016598.7      53057.314      24.422988      106.37132    
     42000   21             6938.118      -17728.983      3586.3917      1013514.2      53092.92       24.406609      108.04044    
     43000   21.5           7109.1209     -17702.196      3674.7851      1020434.3      53084.267      24.410588      110.11593    
     44000   22             6984.2067     -17669.295      3610.2155      1024787.7      53045.715      24.428329      111.79971    
     45000   22.5           7273.5333     -17692.244      3759.7717      1021312.8      53086.116      24.409737      114.12277    
     46000   23             7041.406      -17752.82       3639.7825      1002211.4      53247.699      24.335665      116.21724    
     47000   23.5           7224.2473     -17906.128      3734.2952      978104.2       53400.307      24.266118      118.54912    
     48000   24             6946.3949     -17819.057      3590.6702      989806.4       53329.863      24.298171      120.58958    
     49000   24.5           7000.6909     -17888.545      3618.7364      979956.02      53378.57       24.276         122.7588     
     50000   25             6963.814      -17883.456      3599.6743      981727.37      53352.854      24.287701      124.68929    
     51000   25.5           6922.2939     -17861.698      3578.2121      987532.8       53278.378      24.321651      127.09666    
     52000   26             6970.4504     -17734.547      3603.1047      1006421.9      53211.782      24.352091      129.25514    
     53000   26.5           6969.5305     -17825.064      3602.6292      991286.58      53299.705      24.31192       131.11838    
     54000   27             7129.8549     -17854.387      3685.5027      992839.78      53244.867      24.336959      132.57044    
     55000   27.5           7079.9347     -17768.6        3659.6984      1008143.9      53133.979      24.387749      133.86286    
     56000   28             7173.2361     -17794.901      3707.927       1005365.3      53154.006      24.378561      136.0298     
     57000   28.5           7094.1281     -17735.237      3667.0351      1012064        53134.281      24.387611      138.21009    
     58000   29             7064.1468     -17798.361      3651.5374      1000944.1      53186.815      24.363522      140.71761    
     59000   29.5           6942.4498     -17901.025      3588.6309      981728.06      53301.932      24.310904      142.9636     
     60000   30             7050.1035     -17792.859      3644.2783      1006035.8      53141.919      24.384105      144.37176    
     61000   30.5           6978.9539     -17835.989      3607.5003      992094.11      53251.6        24.333882      146.24727    
     62000   31             6874.9413     -17674.808      3553.735       1018039.6      53137.969      24.385918      148.49006    
     63000   31.5           6906.5111     -17807.99       3570.0538      999987.98      53182.852      24.365338      150.85014    
     64000   32             7056.233      -17783.412      3647.4467      1005317.9      53157.755      24.376841      152.73035    
     65000   32.5           6865.5204     -17816.113      3548.8652      997980.75      53179.945      24.36667       154.70324    
     66000   33             6914.4202     -17823.736      3574.1421      991895.53      53281.275      24.320329      156.79056    
     67000   33.5           7011.0561     -17789.639      3624.0943      997810.67      53267.886      24.326442      158.99472    
     68000   34             7050.994      -17721.747      3644.7386      1011583.4      53167.747      24.37226       160.85081    
     69000   34.5           7003.0228     -17758.396      3619.9418      1008225.9      53135.427      24.387085      162.61279    
     70000   35             6854.0781     -17759.943      3542.9506      1006469.5      53153.275      24.378896      164.42562    
     71000   35.5           7014.3602     -17640.867      3625.8022      1033281.3      52955.99       24.469718      166.37117    
     72000   36             6939.4918     -17765.842      3587.1019      1000199.2      53247.152      24.335915      168.9936     
     73000   36.5           7022.0506     -17797.538      3629.7774      994879.7       53304.315      24.309817      171.46423    
     74000   37             6978.1839     -17879.975      3607.1023      980562.44      53361.985      24.283545      173.90944    
     75000   37.5           7152.1767     -17880.659      3697.0411      983529.04      53348.41       24.289724      175.14203    
     76000   38             7030.6306     -17622.463      3634.2126      1031016.5      52996.96       24.450801      176.47113    
     77000   38.5           6913.5182     -17733.292      3573.6758      1009110.7      53152.838      24.379096      179.28457    
     78000   39             6994.3397     -17898.245      3615.4534      987889.77      53206.24       24.354627      181.00164    
     79000   39.5           7110.3413     -17823.673      3675.4159      995921.02      53240.622      24.338899      183.19576    
     80000   40             6956.652      -17800.686      3595.9722      999894.74      53191.679      24.361294      184.87725    
     81000   40.5           6849.4438     -17756.858      3540.555       1000471.1      53232.196      24.342752      186.57167    
     82000   41             7076.9409     -17839.582      3658.1509      996987.61      53196.522      24.359077      188.11353    
     83000   41.5           6964.8656     -17883.604      3600.2179      983400.59      53307.756      24.308248      190.05221    
     84000   42             7232.8481     -17868.107      3738.741       988649.19      53305.993      24.309052      192.13605    
     85000   42.5           7072.1004     -17944.643      3655.6487      968576.41      53475.515      24.23199       194.47835    
     86000   43             6973.1045     -17809.237      3604.4767      997663.37      53213          24.351534      195.49341    
     87000   43.5           6940.2036     -17739.886      3587.4698      1003265        53233.732      24.34205       197.39775    
     88000   44             6947.9498     -17839.303      3591.4739      992501.98      53226.681      24.345274      199.08232    
     89000   44.5           7095.933      -17791.678      3667.9681      1004120.9      53162.642      24.3746        201.14666    
     90000   45             7004.1361     -17756.143      3620.5172      1006912.7      53176.474      24.36826       203.05606    
     91000   45.5           6999.1438     -17840.176      3617.9366      993591.39      53233.37       24.342215      205.04538    
     92000   46             6906.9233     -17901.518      3570.2669      975257.14      53412.31       24.260665      208.03029    
     93000   46.5           6978.1155     -17823.486      3607.0669      993449.21      53273.666      24.323803      209.38113    
     94000   47             6843.4565     -17948.969      3537.4601      965833.18      53463.844      24.23728       212.32367    
     95000   47.5           7035.0943     -17801.374      3636.5199      1000265.2      53201.002      24.357025      213.60278    
     96000   48             6871.0329     -17727.756      3551.7147      1005747.8      53206.174      24.354658      215.82802    
     97000   48.5           7019.0754     -17790.639      3628.2395      996897.12      53272.787      24.324204      217.71236    
     98000   49             7246.9555     -17874.337      3746.0334      981093.36      53409.307      24.262029      221.08184    
     99000   49.5           6891.5189     -17876.259      3562.3041      980054.02      53369.595      24.280082      223.2811     
    100000   50             7055.8475     -17771.257      3647.2475      997363.88      53329.633      24.298276      224.98348    
    101000   50.5           6901.328      -17790.282      3567.3746      985959.99      53421.824      24.256344      227.09689    
    102000   51             6919.905      -17871.487      3576.9772      983200.39      53335.868      24.295436      229.33331    
    103000   51.5           7091.3851     -17860.532      3665.6172      981172.6       53406.737      24.263196      231.3823     
    104000   52             6937.0131     -17812.629      3585.8206      991284.02      53305.132      24.309444      233.76024    
    105000   52.5           6889.1361     -17795.994      3561.0724      996309         53249.826      24.334693      236.51145    
    106000   53             6903.2074     -17798.732      3568.3461      993106.69      53305.056      24.309479      239.38591    
    107000   53.5           6936.3018     -17886.371      3585.4529      978492.7       53378.906      24.275847      241.14058    
    108000   54             6932.29       -17822.865      3583.3792      978382.15      53500.759      24.220557      243.68022    
    109000   54.5           6929.1185     -17816.34       3581.7398      990880.8       53327.794      24.299114      245.47706    
    110000   55             6973.6855     -17829.629      3604.777       989529.11      53318.181      24.303495      246.92037    
Loop time of 178.973 on 8 procs for 100000 steps with 4000 atoms

Performance: 24.138 ns/day, 0.994 hours/ns, 558.745 timesteps/s, 2.235 Matom-step/s
178.4% CPU use with 8 MPI tasks x 1 OpenMP threads

MPI task timing breakdown:
Section |  min time  |  avg time  |  max time  |%varavg| %total
---------------------------------------------------------------
Pair    | 101.33     | 103.16     | 104.92     |  10.4 | 57.64
Neigh   | 0.42096    | 0.42785    | 0.43703    |   0.9 |  0.24
Comm    | 36.784     | 38.656     | 40.61      |  18.0 | 21.60
Output  | 0.019891   | 0.02071    | 0.023215   |   0.7 |  0.01
Modify  | 30.633     | 30.786     | 30.949     |   1.7 | 17.20
Other   |            | 5.916      |            |       |  3.31

Nlocal:            500 ave         513 max         490 min
Histogram: 1 0 0 3 2 1 0 0 0 1
Nghost:        2297.12 ave        2308 max        2279 min
Histogram: 1 0 0 1 0 1 2 0 1 2
Neighs:        30467.6 ave       33990 max       27818 min
Histogram: 1 0 2 1 1 1 1 0 0 1

Total # of neighbors = 243741
Ave neighs/atom = 60.93525
Neighbor list builds = 1133
Dangerous builds = 0
Total wall time: 0:03:18
