LAMMPS (2 Apr 2025)
KOKKOS mode with Kokkos version 4.6.0 is enabled (src/KOKKOS/kokkos.cpp:72)
  will use up to 1 GPU(s) per node
  using 1 OpenMP thread(s) per MPI task
Lattice spacing in x,y,z = 3.924 3.924 3.924
Created orthogonal box = (0 0 0) to (39.24 39.24 39.24)
  2 by 2 by 2 MPI processor grid
Created 4000 atoms
  using lattice units in orthogonal box = (0 0 0) to (39.24 39.24 39.24)
  create_atoms CPU = 0.006 seconds
Reading eam potential file Pt_u3.eam with DATE: 2007-06-11
Neighbor list info ...
  update: every = 1 steps, delay = 0 steps, check = yes
  max neighbors/atom: 2000, page size: 100000
  master list distance cutoff = 7.3
  ghost atom cutoff = 7.3
  binsize = 7.3, bins = 6 6 6
  1 neighbor lists, perpetual/occasional/extra = 1 0 0
  (1) pair eam/kk, perpetual
      attributes: half, newton on, kokkos_device
      pair build: half/bin/newton/kk/device
      stencil: half/bin/3d
      bin: kk/device
Setting up Verlet run ...
  Unit style    : metal
  Current step  : 0
  Time step     : 0.0005
WARNING: Fix STORE/ATOM not compatible with sending data in Kokkos communication (src/KOKKOS/comm_kokkos.cpp:766)
WARNING: Fix with atom-based arrays not compatible with sending data in Kokkos communication, switching to classic exchange/border communication (src/KOKKOS/comm_kokkos.cpp:779)
WARNING: Fix STORE/ATOM not compatible with Kokkos sorting on device (src/KOKKOS/atom_kokkos.cpp:212)
WARNING: Fix with atom-based arrays not compatible with Kokkos sorting on device, switching to classic host sorting (src/KOKKOS/atom_kokkos.cpp:218)
Per MPI rank memory allocation (min/avg/max) = 4.315 | 4.315 | 4.315 Mbytes
   Step          Time           Temp          PotEng         KinEng         Press          Volume        Density        c_Msd[4]   
         0   0              12000         -23079.503      6202.9358      101063.07      60420.873      21.446531      0            
      1000   0.5            11470.472     -16974.459      5929.2167      1002863.7      55496.123      23.349706      3.4171625    
      2000   1              12035.985     -17072.316      6221.5367      988267.44      55687.472      23.269473      7.7296313    
      3000   1.5            11804.987     -16937.8        6102.1314      995853.74      55736.852      23.248858      12.636635    
      4000   2              11967.504     -16964.958      6186.1385      992629.74      55826.524      23.211514      17.326637    
      5000   2.5            12188.231     -16943.37       6300.2347      999387.89      55760.058      23.239182      22.009546    
      6000   3              11939.079     -16952.419      6171.4451      998280.36      55713.87       23.258448      26.568094    
      7000   3.5            12085.745     -16880.022      6247.2582      1012789        55613.18       23.300559      31.065911    
      8000   4              11913.791     -16938.472      6158.3732      996814.29      55759.111      23.239577      35.440576    
      9000   4.5            12317.739     -16941.359      6367.1788      1003764.6      55702.346      23.26326       39.875504    
     10000   5              11840.375     -16970.536      6120.424       997747.93      55690.996      23.268001      44.792559    
Loop time of 17.6919 on 8 procs for 10000 steps with 4000 atoms

Performance: 24.418 ns/day, 0.983 hours/ns, 565.230 timesteps/s, 2.261 Matom-step/s
179.4% CPU use with 8 MPI tasks x 1 OpenMP threads

MPI task timing breakdown:
Section |  min time  |  avg time  |  max time  |%varavg| %total
---------------------------------------------------------------
Pair    | 9.9444     | 10.118     | 10.278     |   3.2 | 57.19
Neigh   | 0.058061   | 0.059058   | 0.060039   |   0.3 |  0.33
Comm    | 3.6555     | 3.8278     | 4.0161     |   5.6 | 21.64
Output  | 0.0009502  | 0.00096911 | 0.0010126  |   0.0 |  0.01
Modify  | 3.0769     | 3.0908     | 3.1077     |   0.6 | 17.47
Other   |            | 0.5953     |            |       |  3.36

Nlocal:            500 ave         503 max         491 min
Histogram: 1 0 0 0 0 0 0 2 2 3
Nghost:        2245.62 ave        2255 max        2239 min
Histogram: 1 2 1 0 0 1 2 0 0 1
Neighs:        29064.1 ave       31622 max       26482 min
Histogram: 1 0 1 2 0 0 3 0 0 1

Total # of neighbors = 232513
Ave neighs/atom = 58.12825
Neighbor list builds = 153
Dangerous builds = 0
Setting up Verlet run ...
  Unit style    : metal
  Current step  : 10000
  Time step     : 0.0005
WARNING: Fix STORE/ATOM not compatible with Kokkos sorting on device (src/KOKKOS/atom_kokkos.cpp:212)
WARNING: Fix with atom-based arrays not compatible with Kokkos sorting on device, switching to classic host sorting (src/KOKKOS/atom_kokkos.cpp:218)
Per MPI rank memory allocation (min/avg/max) = 5.509 | 5.509 | 5.509 Mbytes
   Step          Time           Temp          PotEng         KinEng         Press          Volume        Density        c_Msd[4]   
     10000   5              11840.375     -16970.536      6120.424       997747.93      55690.996      23.268001      44.792559    
     11000   5.5            8194.592      -17528.109      4235.8774      1002741.8      53837.524      24.069052      47.269616    
     12000   6              7963.9821     -17596.734      4116.6725      1002986.6      53657.343      24.149876      50.051134    
     13000   6.5            7963.3537     -17437.602      4116.3477      1027970.9      53559.676      24.193913      52.140934    
     14000   7              7806.9222     -17518.693      4035.4865      1013197.1      53613.745      24.169514      54.669868    
     15000   7.5            8050.5258     -17611.388      4161.4079      1013383.4      53508.886      24.216878      56.909308    
     16000   8              8240.2711     -17548.058      4259.4894      1016149.9      53600.284      24.175584      59.517187    
     17000   8.5            7961.446      -17483.076      4115.3616      1022979.5      53542.773      24.201551      61.595011    
     18000   9              8004.1958     -17497.197      4137.4594      1013629.7      53690.244      24.135076      64.942899    
     19000   9.5            8143.1876     -17623.339      4209.3059      997187.56      53748.418      24.108954      67.511585    
     20000   10             7908.1039     -17586.987      4087.7884      1002043.3      53695.88       24.132543      69.981333    
     21000   10.5           8026.8715     -17600.275      4149.1808      991267.04      53846.615      24.064988      72.876304    
     22000   11             8039.4432     -17617.114      4155.6792      996891.72      53745.779      24.110138      75.410989    
     23000   11.5           7847.2753     -17460.807      4056.3454      1025916.4      53503.56       24.219288      77.676833    
     24000   12             7924.6472     -17425.113      4096.3398      1026411.2      53603.669      24.174057      80.069447    
     25000   12.5           7897.8194     -17488.848      4082.4722      1024824.9      53505.217      24.218538      82.213812    
     26000   13             7907.0691     -17601.403      4087.2535      1009474.1      53552.217      24.197283      84.62921     
     27000   13.5           7859.0594     -17566.816      4062.4368      1004396.1      53690.896      24.134784      87.040965    
     28000   14             7950.2097     -17626.986      4109.5534      988753.84      53859.763      24.059113      89.403027    
     29000   14.5           7889.4211     -17647.472      4078.1311      975348.45      54010.74       23.991861      91.564943    
     30000   15             7995.2867     -17612.936      4132.8542      998226.21      53738.955      24.113199      94.014271    
     31000   15.5           7886.8173     -17644.241      4076.7851      990162.74      53789.246      24.090655      96.269375    
     32000   16             8125.61       -17770.216      4200.2198      973901.87      53879.802      24.050165      98.665631    
     33000   16.5           7889.4588     -17583.955      4078.1506      998931.99      53762.86       24.102478      101.51595    
     34000   17             7922.4574     -17578.466      4095.2079      999225.42      53769.989      24.099282      104.04406    
     35000   17.5           8095.3338     -17518.21       4184.5697      1007873.4      53754.383      24.106279      106.12119    
     36000   18             8139.5195     -17614.909      4207.4098      1003072.7      53687.965      24.136101      108.83118    
     37000   18.5           7933.5629     -17513.655      4100.9484      1012840.2      53666.98       24.145539      111.6912     
     38000   19             7954.5421     -17508.282      4111.7929      1019233.2      53568.284      24.190025      113.91978    
     39000   19.5           7931.8731     -17579.486      4100.075       1010252.6      53574.591      24.187178      116.05223    
     40000   20             7880.4374     -17588.718      4073.4873      1003242.1      53665.172      24.146352      118.37497    
     41000   20.5           8087.8384     -17609.791      4180.6952      994286.63      53794.493      24.088305      120.56402    
     42000   21             8066.4179     -17623.769      4169.6227      993800.19      53811.288      24.080787      122.89293    
     43000   21.5           7825.9997     -17600.244      4045.3478      991535.56      53846.289      24.065134      125.03304    
     44000   22             8036.8339     -17648.299      4154.3304      992584.81      53779.799      24.094887      127.63819    
     45000   22.5           8076.9638     -17710.835      4175.074       969974.3       54026.851      23.984706      130.16355    
     46000   23             8304.3389     -17624.003      4292.6068      995301.48      53826.964      24.073774      133.01681    
     47000   23.5           8134.7163     -17554.072      4204.9269      1010911.4      53661.555      24.14798       135.70178    
     48000   24             7973.7205     -17607.756      4121.7064      998957.56      53726.455      24.11881       138.22144    
     49000   24.5           7994.4639     -17597.159      4132.4289      996764.11      53783.865      24.093065      141.20124    
     50000   25             7962.3611     -17729.464      4115.8346      977652.77      53870.132      24.054483      144.07139    
     51000   25.5           7787.3317     -17602.15       4025.3599      1002453.7      53656.591      24.150214      146.1926     
     52000   26             8114.261      -17575.484      4194.3534      1008371.3      53645.09       24.155392      148.44426    
     53000   26.5           8185.6736     -17525.028      4231.2673      1012095.8      53691.817      24.134369      150.72172    
     54000   27             7930.4128     -17617.883      4099.3202      1000842.2      53666.546      24.145734      153.1925     
     55000   27.5           8095.3372     -17610.239      4184.5715      995671.53      53783.818      24.093086      155.05059    
     56000   28             7847.2453     -17618.482      4056.3299      995414.94      53745.667      24.110188      157.39144    
     57000   28.5           8043.1446     -17612.816      4157.5925      998926.53      53719.446      24.121957      159.96064    
     58000   29             7961.9719     -17514.862      4115.6334      1017698.1      53583.147      24.183315      162.06489    
     59000   29.5           8005.7341     -17583.307      4138.2546      1009503.7      53602.155      24.17474       164.2995     
     60000   30             7987.4268     -17645.362      4128.7913      998318.26      53650.128      24.153123      166.39467    
     61000   30.5           7924.6496     -17699.728      4096.3411      977097.85      53913.904      24.034953      169.39716    
     62000   31             8168.1857     -17663.707      4222.2276      981660.95      53947.881      24.019815      171.74783    
     63000   31.5           7804.1193     -17606.367      4034.0376      995209.38      53750.975      24.107807      173.38502    
     64000   32             7922.6787     -17555.907      4095.3223      1006476        53689.939      24.135214      175.55627    
     65000   32.5           8118.1033     -17634.523      4196.3395      997609.74      53725.746      24.119128      177.84942    
     66000   33             8028.8508     -17519.704      4150.2039      1015572.4      53616.484      24.168279      180.25508    
     67000   33.5           8103.4205     -17538.504      4188.7498      1014656.1      53613.23       24.169746      182.36089    
     68000   34             7902.7326     -17629.63       4085.0119      994506.02      53750.339      24.108092      185.11716    
     69000   34.5           8089.6213     -17666.348      4181.6168      993745.2       53722.804      24.120449      187.53156    
     70000   35             7819.3258     -17616.597      4041.898       989771.47      53825.453      24.074449      190.51346    
     71000   35.5           7909.4646     -17650.913      4088.4918      986240.94      53832.037      24.071505      192.86836    
     72000   36             7985.6528     -17600.616      4127.8743      995198.1       53798.09       24.086694      194.70043    
     73000   36.5           8020.6074     -17746.952      4145.9428      971623.05      53952.694      24.017673      197.93025    
     74000   37             7979.2558     -17689.946      4124.5677      977350.37      53939.772      24.023427      199.58072    
     75000   37.5           8192.4028     -17709.873      4234.7457      974775.73      53981.071      24.005047      201.75905    
     76000   38             7948.2072     -17601.635      4108.5183      989434.57      53900.807      24.040793      204.35291    
     77000   38.5           8077.989      -17597.711      4175.6039      996260.85      53822.165      24.07592       206.71993    
     78000   39             8053.8547     -17573.419      4163.1287      1005616.9      53724.191      24.119826      208.84894    
     79000   39.5           8027.1716     -17617.613      4149.3359      997614.59      53722.011      24.120805      211.61918    
     80000   40             8085.6546     -17611.248      4179.5664      996190.6       53778.851      24.095311      214.32695    
     81000   40.5           7983.9352     -17632.893      4126.9865      995896.35      53747.153      24.109522      217.03507    
     82000   41             7923.2741     -17565.032      4095.6301      997496.74      53791.472      24.089658      219.49058    
     83000   41.5           8043.8435     -17713.516      4157.9538      978147.96      53902.293      24.040131      221.64786    
     84000   42             8066.4605     -17720.647      4169.6447      967827.98      54051.05       23.973968      224.05301    
     85000   42.5           8017.7137     -17706.968      4144.4469      979511.73      53874.766      24.052413      226.04533    
     86000   43             8178.2755     -17631.043      4227.4432      1001604.5      53683.404      24.138152      227.91011    
     87000   43.5           7940.2868     -17663.851      4104.4241      978844.99      53962.931      24.013117      231.02301    
     88000   44             7986.6696     -17583.713      4128.3999      1000099.1      53766.195      24.100983      232.34144    
     89000   44.5           7988.9896     -17644.289      4129.5992      986608.34      53854.334      24.061539      235.39683    
     90000   45             7962.4716     -17647.732      4115.8917      978175.87      53974.492      24.007973      238.15528    
     91000   45.5           7956.4175     -17589.766      4112.7623      996381.55      53792.24       24.089314      240.4004     
     92000   46             7866.9018     -17604.898      4066.4906      998035.72      53708.005      24.127095      242.56393    
     93000   46.5           8176.3873     -17455.088      4226.4672      1028157.5      53554.986      24.196032      244.79378    
     94000   47             7865.508      -17546.869      4065.7701      1007317.3      53676.807      24.141118      247.97584    
     95000   47.5           8005.3423     -17455.064      4138.0521      1029282.9      53507.349      24.217573      248.8845     
     96000   48             7993.3968     -17586.655      4131.8773      1007265.4      53644.63       24.155599      251.95043    
     97000   48.5           7965.9412     -17534.196      4117.6852      1004363.6      53773.956      24.097504      254.55263    
     98000   49             7913.4833     -17454.626      4090.5691      1026636.3      53529.166      24.207703      257.00488    
     99000   49.5           7971.5246     -17572.17       4120.5713      1004280.4      53692.305      24.13415       260.45882    
    100000   50             7956.9092     -17607.254      4113.0164      990594.09      53853.386      24.061963      263.03565    
    101000   50.5           8113.4666     -17581.972      4193.9427      1006552.9      53653.435      24.151635      264.64666    
    102000   51             8009.172      -17562.182      4140.0317      1006379.3      53691.169      24.134661      267.17288    
    103000   51.5           8230.6975     -17605.519      4254.5407      997899.95      53772.933      24.097963      270.0992     
    104000   52             7838.368      -17589.745      4051.7411      997913.1       53745.796      24.110131      272.67981    
    105000   52.5           7889.7942     -17639.094      4078.3239      983966.67      53893.14       24.044213      276.4108     
    106000   53             7979.9321     -17644.59       4124.9172      991981.45      53772.065      24.098352      278.63526    
    107000   53.5           8002.3142     -17490.795      4136.4868      1015919.6      53663.229      24.147227      280.72308    
    108000   54             7924.1242     -17610.12       4096.0695      997463.12      53724.513      24.119682      283.44753    
    109000   54.5           8137.9465     -17605.547      4206.5967      1007870.3      53622.369      24.165627      285.88918    
    110000   55             7991.5648     -17553.352      4130.9303      1001550.2      53795.161      24.088006      289.7904     
Loop time of 177.788 on 8 procs for 100000 steps with 4000 atoms

Performance: 24.299 ns/day, 0.988 hours/ns, 562.467 timesteps/s, 2.250 Matom-step/s
178.5% CPU use with 8 MPI tasks x 1 OpenMP threads

MPI task timing breakdown:
Section |  min time  |  avg time  |  max time  |%varavg| %total
---------------------------------------------------------------
Pair    | 100.56     | 102.32     | 104.1      |  10.2 | 57.55
Neigh   | 0.45231    | 0.45792    | 0.46452    |   0.8 |  0.26
Comm    | 36.395     | 38.311     | 40.229     |  18.1 | 21.55
Output  | 0.020104   | 0.021055   | 0.023643   |   0.7 |  0.01
Modify  | 30.64      | 30.782     | 30.957     |   1.9 | 17.31
Other   |            | 5.892      |            |       |  3.31

Nlocal:            500 ave         510 max         491 min
Histogram: 1 1 0 1 2 0 1 1 0 1
Nghost:        2284.88 ave        2313 max        2262 min
Histogram: 2 1 0 1 0 0 3 0 0 1
Neighs:        30155.8 ave       33316 max       27569 min
Histogram: 1 0 1 1 1 3 0 0 0 1

Total # of neighbors = 241246
Ave neighs/atom = 60.3115
Neighbor list builds = 1218
Dangerous builds = 0
Total wall time: 0:03:17
