LAMMPS (2 Apr 2025)
KOKKOS mode with Kokkos version 4.6.0 is enabled (src/KOKKOS/kokkos.cpp:72)
  will use up to 1 GPU(s) per node
  using 1 OpenMP thread(s) per MPI task
Lattice spacing in x,y,z = 3.924 3.924 3.924
Created orthogonal box = (0 0 0) to (39.24 39.24 39.24)
  2 by 2 by 2 MPI processor grid
Created 4000 atoms
  using lattice units in orthogonal box = (0 0 0) to (39.24 39.24 39.24)
  create_atoms CPU = 0.007 seconds
Reading eam potential file Pt_u3.eam with DATE: 2007-06-11
Neighbor list info ...
  update: every = 1 steps, delay = 0 steps, check = yes
  max neighbors/atom: 2000, page size: 100000
  master list distance cutoff = 7.3
  ghost atom cutoff = 7.3
  binsize = 7.3, bins = 6 6 6
  1 neighbor lists, perpetual/occasional/extra = 1 0 0
  (1) pair eam/kk, perpetual
      attributes: half, newton on, kokkos_device
      pair build: half/bin/newton/kk/device
      stencil: half/bin/3d
      bin: kk/device
Setting up Verlet run ...
  Unit style    : metal
  Current step  : 0
  Time step     : 0.0005
WARNING: Fix STORE/ATOM not compatible with sending data in Kokkos communication (src/KOKKOS/comm_kokkos.cpp:766)
WARNING: Fix with atom-based arrays not compatible with sending data in Kokkos communication, switching to classic exchange/border communication (src/KOKKOS/comm_kokkos.cpp:779)
WARNING: Fix STORE/ATOM not compatible with Kokkos sorting on device (src/KOKKOS/atom_kokkos.cpp:212)
WARNING: Fix with atom-based arrays not compatible with Kokkos sorting on device, switching to classic host sorting (src/KOKKOS/atom_kokkos.cpp:218)
Per MPI rank memory allocation (min/avg/max) = 4.315 | 4.315 | 4.315 Mbytes
   Step          Time           Temp          PotEng         KinEng         Press          Volume        Density        c_Msd[4]   
         0   0              12000         -23079.503      6202.9358      101063.07      60420.873      21.446531      0            
      1000   0.5            11470.472     -16974.459      5929.2167      1002863.7      55496.123      23.349706      3.4171625    
      2000   1              12035.985     -17072.316      6221.5367      988267.44      55687.472      23.269473      7.7296313    
      3000   1.5            11804.987     -16937.8        6102.1314      995853.74      55736.852      23.248858      12.636635    
      4000   2              11967.504     -16964.958      6186.1385      992629.74      55826.524      23.211514      17.326637    
      5000   2.5            12188.233     -16943.373      6300.2357      999387.72      55760.058      23.239182      22.009546    
      6000   3              11922.264     -16968.161      6162.7533      996774.27      55703.592      23.26274       26.543219    
      7000   3.5            11949.702     -16900.407      6176.9361      1009836.1      55612.303      23.300926      31.217934    
      8000   4              12166.538     -17017.426      6289.0215      994269.44      55707.028      23.261305      35.686311    
      9000   4.5            12140.622     -17005.124      6275.6252      990216.96      55789.252      23.227021      40.066705    
     10000   5              12172.376     -16931.556      6292.0391      996715.49      55857.642      23.198583      44.570599    
Loop time of 17.6729 on 8 procs for 10000 steps with 4000 atoms

Performance: 24.444 ns/day, 0.982 hours/ns, 565.839 timesteps/s, 2.263 Matom-step/s
179.4% CPU use with 8 MPI tasks x 1 OpenMP threads

MPI task timing breakdown:
Section |  min time  |  avg time  |  max time  |%varavg| %total
---------------------------------------------------------------
Pair    | 9.9559     | 10.107     | 10.252     |   3.0 | 57.19
Neigh   | 0.057805   | 0.059183   | 0.060352   |   0.4 |  0.33
Comm    | 3.6663     | 3.8185     | 3.9814     |   5.1 | 21.61
Output  | 0.001007   | 0.001158   | 0.0012248  |   0.2 |  0.01
Modify  | 3.0727     | 3.0883     | 3.1124     |   0.7 | 17.47
Other   |            | 0.5992     |            |       |  3.39

Nlocal:            500 ave         512 max         491 min
Histogram: 2 1 1 0 1 1 0 0 1 1
Nghost:        2229.38 ave        2241 max        2218 min
Histogram: 3 0 0 0 1 0 1 0 1 2
Neighs:          28901 ave       31546 max       25571 min
Histogram: 1 0 0 1 0 2 2 1 0 1

Total # of neighbors = 231208
Ave neighs/atom = 57.802
Neighbor list builds = 153
Dangerous builds = 0
Setting up Verlet run ...
  Unit style    : metal
  Current step  : 10000
  Time step     : 0.0005
WARNING: Fix STORE/ATOM not compatible with Kokkos sorting on device (src/KOKKOS/atom_kokkos.cpp:212)
WARNING: Fix with atom-based arrays not compatible with Kokkos sorting on device, switching to classic host sorting (src/KOKKOS/atom_kokkos.cpp:218)
Per MPI rank memory allocation (min/avg/max) = 5.509 | 5.509 | 5.509 Mbytes
   Step          Time           Temp          PotEng         KinEng         Press          Volume        Density        c_Msd[4]   
     10000   5              12172.376     -16931.556      6292.0391      996715.49      55857.642      23.198583      44.570599    
     11000   5.5            9250.2315     -17523.84       4781.5494      968573.3       54626.892      23.72125       47.718703    
     12000   6              9059.2847     -17487.327      4682.8468      982386.31      54407.012      23.817117      50.311317    
     13000   6.5            9042.6037     -17483.189      4674.2242      986892.23      54334.7        23.848814      53.05806     
     14000   7              9014.7481     -17458.342      4659.8253      998338.31      54199.258      23.908412      55.728752    
     15000   7.5            9148.2959     -17380.155      4728.8577      1004783.7      54258.186      23.882445      59.137823    
     16000   8              8942.7575     -17418.138      4622.6126      1001803.6      54191.067      23.912025      62.701227    
     17000   8.5            8836.9953     -17387.258      4567.9429      1009173.7      54111.883      23.947016      65.619657    
     18000   9              9013.3877     -17376.781      4659.1221      1018272.8      53998.263      23.997405      68.330696    
     19000   9.5            9183.4688     -17370.466      4747.039       1011761.1      54153.435      23.928642      71.345127    
     20000   10             8993.6006     -17481.614      4648.894       985264.45      54372.505      23.832232      74.422811    
     21000   10.5           9151.3343     -17355          4730.4283      996352.46      54439.11       23.803074      78.350634    
     22000   11             9036.2484     -17368.332      4670.9391      1010828        54168.757      23.921873      80.811709    
     23000   11.5           9016.4128     -17300.985      4660.6858      1016194.8      54173.75       23.919669      83.433525    
     24000   12             8939.9014     -17405.466      4621.1362      1005970.5      54157.644      23.926782      86.447394    
     25000   12.5           8990.3476     -17406.866      4647.2124      1004902.9      54182.072      23.915995      89.312145    
     26000   13             8823.0367     -17363.121      4560.7276      1004881.6      54230.302      23.894725      91.439454    
     27000   13.5           9063.451      -17451.898      4685.0004      997087.56      54248.234      23.886827      94.219228    
     28000   14             8927.0041     -17449.435      4614.4695      991107.97      54329.862      23.850938      97.176792    
     29000   14.5           8817.208      -17314.955      4557.7146      1010146.2      54204.67       23.906024      100.34394    
     30000   15             9033.7868     -17425.592      4669.6666      993919.15      54328.294      23.851626      103.25678    
     31000   15.5           9219.024      -17482.506      4765.4179      988427.04      54352.844      23.840853      106.6186     
     32000   16             9029.3391     -17544.595      4667.3676      977561.26      54383.384      23.827465      109.09377    
     33000   16.5           8745.2296     -17593.639      4520.5082      972768.77      54338.952      23.846948      111.37104    
     34000   17             8996.5036     -17500.067      4650.3945      987507.28      54309.982      23.859668      114.43643    
     35000   17.5           9058.511      -17369.593      4682.4469      1002904.8      54279.841      23.872917      117.78819    
     36000   18             9014.3207     -17494.158      4659.6044      989247.79      54253.746      23.8844        121.12013    
     37000   18.5           8915.4277     -17523.928      4608.4855      985281.64      54285.135      23.870589      123.68316    
     38000   19             8832.151      -17488.87       4565.4388      981033.25      54410.067      23.81578       126.70701    
     39000   19.5           8970.5588     -17445.771      4636.9834      989356.27      54378.359      23.829666      129.58578    
     40000   20             9082.4405     -17386.657      4694.8163      1009401.4      54154.294      23.928262      131.83502    
     41000   20.5           8926.0452     -17333.421      4613.9738      1018479.9      54063.19       23.968585      134.43562    
     42000   21             8938.6711     -17306.17       4620.5003      1019129.7      54102.565      23.951141      137.49118    
     43000   21.5           9125.0076     -17434.103      4716.8197      1006760.4      54106.393      23.949446      139.99514    
     44000   22             9036.9903     -17472.651      4671.3226      988784.77      54336.139      23.848182      143.68537    
     45000   22.5           9162.261      -17469.545      4736.0764      982398.1       54455.868      23.795749      146.78081    
     46000   23             8925.9161     -17429.232      4613.9071      992247.36      54352.209      23.841131      149.91814    
     47000   23.5           9032.7915     -17521.824      4669.1522      984440.38      54313.976      23.857914      152.46469    
     48000   24             9012.0461     -17535.961      4658.4287      972072.71      54479.62       23.785374      155.97075    
     49000   24.5           9003.863      -17507.024      4654.1987      976716.39      54469.215      23.789918      158.95347    
     50000   25             8967.5153     -17399.845      4635.4101      1001351.4      54228.929      23.89533       161.70643    
     51000   25.5           8982.7402     -17435.249      4643.2801      996924.63      54248.921      23.886524      164.74633    
     52000   26             9172.5062     -17465.751      4741.3723      988460.22      54391.791      23.823782      167.84499    
     53000   26.5           9012.3132     -17335.299      4658.5667      1008593.6      54255.819      23.883487      170.72535    
     54000   27             8942.9617     -17373.183      4622.7181      1013578.8      54069.047      23.965988      173.73809    
     55000   27.5           9069.0173     -17317.557      4687.8777      1020316.7      54076.793      23.962555      176.11812    
     56000   28             9096.0549     -17414.171      4701.8537      999964.33      54259.349      23.881933      179.17301    
     57000   28.5           9049.1702     -17449.433      4677.6185      983445.06      54464.795      23.791848      182.58498    
     58000   29             8940.7424     -17435.334      4621.5709      993008.47      54339.455      23.846727      184.98489    
     59000   29.5           8812.7384     -17539.773      4555.4042      976746.92      54371.695      23.832587      188.60353    
     60000   30             8984.7098     -17464.136      4644.2982      990060.53      54321.964      23.854406      191.31255    
     61000   30.5           8927.7147     -17400.583      4614.8368      1004085.9      54182.305      23.915892      193.60017    
     62000   31             9185.691      -17443.47       4748.1877      1006279.9      54103.875      23.950561      195.72528    
     63000   31.5           8842.7161     -17446.39       4570.9001      993072.04      54270.143      23.877183      199.58114    
     64000   32             9163.2813     -17475.456      4736.6038      990783.15      54297.446      23.865177      202.57269    
     65000   32.5           8885.3765     -17502.098      4592.9517      973355.4       54512.525      23.771017      205.83845    
     66000   33             9209.8348     -17443.474      4760.6679      1000303.3      54200.273      23.907964      207.9598     
     67000   33.5           8873.5395     -17487.795      4586.833       996342.51      54156.542      23.927269      211.1035     
     68000   34             9018.4238     -17317.789      4661.7253      1016760.5      54123.521      23.941867      214.30803    
     69000   34.5           8988.9299     -17354.81       4646.4796      1017022.7      54070.462      23.965361      217.3866     
     70000   35             9155.5596     -17435.411      4732.6124      999248.55      54234.194      23.89301       220.14504    
     71000   35.5           9170.0617     -17400.435      4740.1087      1007675        54161.104      23.925254      221.87586    
     72000   36             8933.6045     -17422.156      4617.8813      1001459.2      54218.021      23.900137      224.65976    
     73000   36.5           9224.5842     -17319.259      4768.292       1026052        54041.775      23.978083      227.67096    
     74000   37             8967.7061     -17323.737      4635.5088      1013563.8      54179.522      23.91712       230.70712    
     75000   37.5           8950.4924     -17465.753      4626.6108      985518.9       54387.404      23.825703      234.1586     
     76000   38             8886.7152     -17405.253      4593.6437      997057.4       54300.51       23.86383       237.20978    
     77000   38.5           8942.7525     -17422.635      4622.61        997700.94      54243.311      23.888994      239.08227    
     78000   39             9160.7939     -17481.069      4735.3181      996500.71      54181.114      23.916418      241.4034     
     79000   39.5           8858.0314     -17316.74       4578.8167      1006420        54294.25       23.866582      245.24572    
     80000   40             8936.2694     -17464.259      4619.2588      994170.16      54252.286      23.885042      248.27247    
     81000   40.5           8899.5585     -17508.215      4600.2825      977935.66      54424.941      23.80927       251.77998    
     82000   41             9062.3707     -17389.935      4684.442       1001306.2      54287.842      23.869399      255.07657    
     83000   41.5           8976.1529     -17464.545      4639.8751      988984         54322.806      23.854036      257.7939     
     84000   42             9038.3167     -17466.408      4672.0082      997322.52      54201.106      23.907596      260.25998    
     85000   42.5           9086.4677     -17354.023      4696.898       1016943.3      54064.233      23.968122      261.29945    
     86000   43             9004.0587     -17385.556      4654.2999      1006780.2      54182.054      23.916003      264.08988    
     87000   43.5           9078.1413     -17408.753      4692.594       997394.68      54304.405      23.862119      267.72486    
     88000   44             9090.1832     -17280.858      4698.8186      1015581.6      54251.527      23.885377      270.70405    
     89000   44.5           8924.3928     -17394.692      4613.1196      999678.85      54266.773      23.878666      273.38776    
     90000   45             9228.1876     -17294.999      4770.1546      1027127.1      54021.126      23.987248      275.83907    
     91000   45.5           9043.2793     -17374.429      4674.5734      1005447.7      54226.033      23.896606      280.11379    
     92000   46             9195.2852     -17390.445      4753.147       1010802.9      54127.824      23.939964      283.01477    
     93000   46.5           9106.3802     -17441.013      4707.191       1006238.3      54090.858      23.956324      286.27794    
     94000   47             8859.0971     -17386.055      4579.3676      1007254.4      54148.231      23.930942      288.50579    
     95000   47.5           8839.8356     -17283.844      4569.4111      1029402.9      53932.271      24.026768      291.14126    
     96000   48             8912.9112     -17275.125      4607.1847      1017156.7      54164.655      23.923685      294.81361    
     97000   48.5           9125.8703     -17474.502      4717.2656      990884.85      54321.391      23.854657      297.91441    
     98000   49             8987.955      -17505.536      4645.9757      977785.08      54440.703      23.802377      300.82316    
     99000   49.5           9086.8396     -17454.148      4697.0902      990161.27      54343.495      23.844954      304.12131    
    100000   50             9103.1535     -17429.113      4705.5231      990685.55      54402.452      23.819113      308.02161    
    101000   50.5           9066.8114     -17520.816      4686.7374      980184.6       54399.07       23.820594      311.67687    
    102000   51             8842.8078     -17429.024      4570.9475      993660.79      54281.581      23.872152      314.59037    
    103000   51.5           9000.7503     -17301.333      4652.5897      1021383.8      54078.266      23.961903      317.3485     
    104000   52             9028.988      -17440.982      4667.1861      995626.97      54283.699      23.871221      321.65423    
    105000   52.5           8689.6069     -17433.811      4491.7562      986763.74      54372.755      23.832122      324.67824    
    106000   53             9082.4979     -17420.469      4694.846       996411.35      54309.488      23.859885      326.86362    
    107000   53.5           9026.2154     -17474.361      4665.7529      992450.22      54273.541      23.875689      330.33565    
    108000   54             8961.4149     -17299.646      4632.2568      1018767        54130.669      23.938706      333.03588    
    109000   54.5           9022.2032     -17416.788      4663.6789      997055.41      54286.687      23.869907      335.39511    
    110000   55             9134.9834     -17390.122      4721.9763      1006338.2      54201.925      23.907235      338.53685    
Loop time of 177.485 on 8 procs for 100000 steps with 4000 atoms

Performance: 24.340 ns/day, 0.986 hours/ns, 563.428 timesteps/s, 2.254 Matom-step/s
178.8% CPU use with 8 MPI tasks x 1 OpenMP threads

MPI task timing breakdown:
Section |  min time  |  avg time  |  max time  |%varavg| %total
---------------------------------------------------------------
Pair    | 100.41     | 101.99     | 103.68     |   9.6 | 57.47
Neigh   | 0.48486    | 0.49274    | 0.50099    |   0.9 |  0.28
Comm    | 36.504     | 38.269     | 39.978     |  16.6 | 21.56
Output  | 0.022105   | 0.023008   | 0.024493   |   0.4 |  0.01
Modify  | 30.624     | 30.767     | 31.003     |   2.3 | 17.34
Other   |            | 5.941      |            |       |  3.35

Nlocal:            500 ave         513 max         490 min
Histogram: 3 1 0 0 0 0 1 1 1 1
Nghost:        2269.75 ave        2285 max        2254 min
Histogram: 2 0 1 0 1 0 1 2 0 1
Neighs:          29906 ave       31820 max       27047 min
Histogram: 1 0 0 1 0 1 2 1 1 1

Total # of neighbors = 239248
Ave neighs/atom = 59.812
Neighbor list builds = 1309
Dangerous builds = 0
Total wall time: 0:03:16
